TITLE="LBM output"
VARIABLES = "X", "Y", "Ux","Uy","density","pressure","f0","f1","f2","f3","f4","f5","f6","f7","f8","feq0","feq1","feq2","feq3","feq4","feq5","feq6","feq7","feq8",
ZONE T = "fluid", I=101, J=101, F=POINT
    0.00000e+00    0.00000e+00   -2.61935e-17    5.76257e-17    3.31136e-01    3.04939e-04    1.47172e-01    3.67930e-02    3.67930e-02    3.67930e-02    3.67930e-02    9.19826e-03    9.19826e-03    9.19826e-03    9.19826e-03    1.47172e-01    3.67929e-02    3.67929e-02    3.67929e-02    3.67929e-02    9.19822e-03    9.19822e-03    9.19822e-03    9.19822e-03
    1.00000e+00    0.00000e+00   -6.27758e-07    5.23870e-17    3.31136e-01    3.04939e-04    1.47172e-01    3.67929e-02    3.67930e-02    3.67930e-02    3.67930e-02    9.19824e-03    9.19827e-03    9.19827e-03    9.19824e-03    1.47172e-01    3.67929e-02    3.67929e-02    3.67929e-02    3.67929e-02    9.19822e-03    9.19822e-03    9.19822e-03    9.19822e-03
    2.00000e+00    0.00000e+00   -1.25515e-06   -2.09548e-17    3.31136e-01    3.04938e-04    1.47172e-01    3.67928e-02    3.67930e-02    3.67931e-02    3.67930e-02    9.19822e-03    9.19829e-03    9.19829e-03    9.19822e-03    1.47172e-01    3.67929e-02    3.67929e-02    3.67929e-02    3.67929e-02    9.19822e-03    9.19822e-03    9.19822e-03    9.19822e-03
    3.00000e+00    0.00000e+00   -1.88201e-06   -6.28644e-17    3.31136e-01    3.04937e-04    1.47172e-01    3.67928e-02    3.67930e-02    3.67932e-02    3.67930e-02    9.19821e-03    9.19831e-03    9.19831e-03    9.19821e-03    1.47172e-01    3.67929e-02    3.67929e-02    3.67929e-02    3.67929e-02    9.19822e-03    9.19822e-03    9.19822e-03    9.19822e-03
    4.00000e+00    0.00000e+00   -2.50830e-06   -4.71483e-17    3.31136e-01    3.04935e-04    1.47172e-01    3.67927e-02    3.67930e-02    3.67932e-02    3.67930e-02    9.19819e-03    9.19833e-03    9.19833e-03    9.19819e-03    1.47172e-01    3.67929e-02    3.67929e-02    3.67929e-02    3.67929e-02    9.19822e-03    9.19822e-03    9.19822e-03    9.19822e-03
    5.00000e+00    0.00000e+00   -3.13418e-06   -3.14322e-17    3.31136e-01    3.04932e-04    1.47172e-01    3.67926e-02    3.67930e-02    3.67933e-02    3.67930e-02    9.19817e-03    9.19834e-03    9.19834e-03    9.19817e-03    1.47172e-01    3.67929e-02    3.67929e-02    3.67929e-02    3.67929e-02    9.19822e-03    9.19822e-03    9.19822e-03    9.19822e-03
    6.00000e+00    0.00000e+00   -3.76014e-06   -3.66709e-17    3.31136e-01    3.04929e-04    1.47172e-01    3.67925e-02    3.67930e-02    3.67934e-02    3.67930e-02    9.19815e-03    9.19836e-03    9.19836e-03    9.19815e-03    1.47172e-01    3.67929e-02    3.67929e-02    3.67929e-02    3.67929e-02    9.19822e-03    9.19822e-03    9.19822e-03    9.19822e-03
    7.00000e+00    0.00000e+00   -4.38704e-06   -5.23870e-17    3.31136e-01    3.04925e-04    1.47172e-01    3.67925e-02    3.67930e-02    3.67934e-02    3.67930e-02    9.19813e-03    9.19838e-03    9.19838e-03    9.19813e-03    1.47172e-01    3.67929e-02    3.67929e-02    3.67929e-02    3.67929e-02    9.19822e-03    9.19822e-03    9.19822e-03    9.19822e-03
    8.00000e+00    0.00000e+00   -5.01617e-06   -7.33419e-17    3.31136e-01    3.04921e-04    1.47172e-01    3.67924e-02    3.67929e-02    3.67935e-02    3.67929e-02    9.19812e-03    9.19839e-03    9.19839e-03    9.19812e-03    1.47172e-01    3.67929e-02    3.67929e-02    3.67929e-02    3.67929e-02    9.19822e-03    9.19822e-03    9.19822e-03    9.19822e-03
    9.00000e+00    0.00000e+00   -5.64929e-06   -4.19096e-17    3.31136e-01    3.04916e-04    1.47172e-01    3.67923e-02    3.67929e-02    3.67936e-02    3.67929e-02    9.19810e-03    9.19841e-03    9.19841e-03    9.19810e-03    1.47172e-01    3.67929e-02    3.67929e-02    3.67929e-02    3.67929e-02    9.19822e-03    9.19822e-03    9.19822e-03    9.19822e-03
    1.00000e+01    0.00000e+00   -6.28867e-06   -3.14322e-17    3.31136e-01    3.04910e-04    1.47172e-01    3.67923e-02    3.67929e-02    3.67936e-02    3.67929e-02    9.19808e-03    9.19842e-03    9.19842e-03    9.19808e-03    1.47172e-01    3.67929e-02    3.67929e-02    3.67929e-02    3.67929e-02    9.19822e-03    9.19822e-03    9.19822e-03    9.19822e-03
    1.10000e+01    0.00000e+00   -6.93709e-06   -3.66709e-17    3.31136e-01    3.04904e-04    1.47172e-01    3.67922e-02    3.67929e-02    3.67937e-02    3.67929e-02    9.19806e-03    9.19844e-03    9.19844e-03    9.19806e-03    1.47172e-01    3.67929e-02    3.67929e-02    3.67929e-02    3.67929e-02    9.19822e-03    9.19822e-03    9.19822e-03    9.19822e-03
    1.20000e+01    0.00000e+00   -7.59787e-06    1.04774e-17    3.31136e-01    3.04897e-04    1.47171e-01    3.67921e-02    3.67929e-02    3.67938e-02    3.67929e-02    9.19804e-03    9.19846e-03    9.19846e-03    9.19804e-03    1.47172e-01    3.67929e-02    3.67929e-02    3.67929e-02    3.67929e-02    9.19822e-03    9.19822e-03    9.19822e-03    9.19822e-03
    1.30000e+01    0.00000e+00   -8.27480e-06   -5.23871e-18    3.31136e-01    3.04889e-04    1.47171e-01    3.67920e-02    3.67929e-02    3.67939e-02    3.67929e-02    9.19802e-03    9.19848e-03    9.19848e-03    9.19802e-03    1.47172e-01    3.67929e-02    3.67929e-02    3.67929e-02    3.67929e-02    9.19822e-03    9.19822e-03    9.19822e-03    9.19822e-03
    1.40000e+01    0.00000e+00   -8.97209e-06    1.57161e-17    3.31136e-01    3.04881e-04    1.47171e-01    3.67920e-02    3.67929e-02    3.67939e-02    3.67929e-02    9.19800e-03    9.19849e-03    9.19849e-03    9.19800e-03    1.47172e-01    3.67929e-02    3.67929e-02    3.67929e-02    3.67929e-02    9.19822e-03    9.19822e-03    9.19822e-03    9.19822e-03
    1.50000e+01    0.00000e+00   -9.69430e-06    1.57161e-17    3.31136e-01    3.04872e-04    1.47171e-01    3.67919e-02    3.67929e-02    3.67940e-02    3.67929e-02    9.19798e-03    9.19851e-03    9.19851e-03    9.19798e-03    1.47172e-01    3.67929e-02    3.67929e-02    3.67929e-02    3.67929e-02    9.19822e-03    9.19822e-03    9.19822e-03    9.19822e-03
    1.60000e+01    0.00000e+00   -1.04462e-05   -4.71484e-17    3.31136e-01    3.04862e-04    1.47171e-01    3.67918e-02    3.67929e-02    3.67941e-02    3.67929e-02    9.19796e-03    9.19853e-03    9.19853e-03    9.19796e-03    1.47172e-01    3.67929e-02    3.67929e-02    3.67929e-02    3.67929e-02    9.19822e-03    9.19822e-03    9.19822e-03    9.19822e-03
    1.70000e+01    0.00000e+00   -1.12326e-05   -6.81032e-17    3.31136e-01    3.04851e-04    1.47171e-01    3.67917e-02    3.67929e-02    3.67942e-02    3.67929e-02    9.19794e-03    9.19855e-03    9.19855e-03    9.19794e-03    1.47172e-01    3.67929e-02    3.67929e-02    3.67929e-02    3.67929e-02    9.19822e-03    9.19822e-03    9.19822e-03    9.19822e-03
    1.80000e+01    0.00000e+00   -1.20582e-05   -5.23871e-17    3.31136e-01    3.04840e-04    1.47171e-01    3.67916e-02    3.67929e-02    3.67943e-02    3.67929e-02    9.19791e-03    9.19857e-03    9.19857e-03    9.19791e-03    1.47172e-01    3.67929e-02    3.67929e-02    3.67929e-02    3.67929e-02    9.19822e-03    9.19822e-03    9.19822e-03    9.19822e-03
    1.90000e+01    0.00000e+00   -1.29272e-05   -4.19097e-17    3.31136e-01    3.04827e-04    1.47171e-01    3.67915e-02    3.67929e-02    3.67944e-02    3.67929e-02    9.19788e-03    9.19859e-03    9.19859e-03    9.19788e-03    1.47172e-01    3.67929e-02    3.67929e-02    3.67929e-02    3.67929e-02    9.19822e-03    9.19822e-03    9.19822e-03    9.19822e-03
    2.00000e+01    0.00000e+00   -1.38433e-05   -4.71484e-17    3.31136e-01    3.04814e-04    1.47171e-01    3.67914e-02    3.67928e-02    3.67945e-02    3.67928e-02    9.19786e-03    9.19862e-03    9.19862e-03    9.19786e-03    1.47172e-01    3.67929e-02    3.67929e-02    3.67929e-02    3.67929e-02    9.19822e-03    9.19822e-03    9.19822e-03    9.19822e-03
    2.10000e+01    0.00000e+00   -1.48089e-05   -5.23871e-17    3.31136e-01    3.04800e-04    1.47171e-01    3.67913e-02    3.67928e-02    3.67946e-02    3.67928e-02    9.19783e-03    9.19864e-03    9.19864e-03    9.19783e-03    1.47172e-01    3.67929e-02    3.67929e-02    3.67929e-02    3.67929e-02    9.19822e-03    9.19822e-03    9.19822e-03    9.19822e-03
    2.20000e+01    0.00000e+00   -1.58254e-05   -3.66710e-17    3.31135e-01    3.04786e-04    1.47171e-01    3.67912e-02    3.67928e-02    3.67947e-02    3.67928e-02    9.19780e-03    9.19867e-03    9.19867e-03    9.19780e-03    1.47172e-01    3.67929e-02    3.67929e-02    3.67929e-02    3.67929e-02    9.19822e-03    9.19822e-03    9.19822e-03    9.19822e-03
    2.30000e+01    0.00000e+00   -1.68921e-05   -5.23871e-18    3.31135e-01    3.04770e-04    1.47171e-01    3.67911e-02    3.67928e-02    3.67948e-02    3.67928e-02    9.19777e-03    9.19870e-03    9.19870e-03    9.19777e-03    1.47172e-01    3.67929e-02    3.67929e-02    3.67929e-02    3.67929e-02    9.19822e-03    9.19822e-03    9.19822e-03    9.19822e-03
    2.40000e+01    0.00000e+00   -1.80062e-05    5.23871e-18    3.31135e-01    3.04754e-04    1.47171e-01    3.67910e-02    3.67928e-02    3.67949e-02    3.67928e-02    9.19773e-03    9.19872e-03    9.19872e-03    9.19773e-03    1.47172e-01    3.67929e-02    3.67929e-02    3.67929e-02    3.67929e-02    9.19822e-03    9.19822e-03    9.19822e-03    9.19822e-03
    2.50000e+01    0.00000e+00   -1.91626e-05    1.04774e-17    3.31135e-01    3.04737e-04    1.47171e-01    3.67908e-02    3.67928e-02    3.67950e-02    3.67928e-02    9.19770e-03    9.19875e-03    9.19875e-03    9.19770e-03    1.47172e-01    3.67929e-02    3.67929e-02    3.67929e-02    3.67929e-02    9.19822e-03    9.19822e-03    9.19822e-03    9.19822e-03
    2.60000e+01    0.00000e+00   -2.03529e-05    0.00000e+00    3.31135e-01    3.04719e-04    1.47171e-01    3.67907e-02    3.67928e-02    3.67952e-02    3.67928e-02    9.19766e-03    9.19878e-03    9.19878e-03    9.19766e-03    1.47172e-01    3.67929e-02    3.67929e-02    3.67929e-02    3.67929e-02    9.19822e-03    9.19822e-03    9.19822e-03    9.19822e-03
    2.70000e+01    0.00000e+00   -2.15657e-05   -2.09549e-17    3.31135e-01    3.04700e-04    1.47171e-01    3.67906e-02    3.67927e-02    3.67953e-02    3.67927e-02    9.19763e-03    9.19882e-03    9.19882e-03    9.19763e-03    1.47172e-01    3.67929e-02    3.67929e-02    3.67929e-02    3.67929e-02    9.19822e-03    9.19822e-03    9.19822e-03    9.19822e-03
    2.80000e+01    0.00000e+00   -2.27859e-05   -8.90582e-17    3.31135e-01    3.04681e-04    1.47171e-01    3.67904e-02    3.67927e-02    3.67954e-02    3.67927e-02    9.19759e-03    9.19885e-03    9.19885e-03    9.19759e-03    1.47172e-01    3.67929e-02    3.67929e-02    3.67929e-02    3.67929e-02    9.19822e-03    9.19822e-03    9.19822e-03    9.19822e-03
    2.90000e+01    0.00000e+00   -2.39945e-05   -1.10013e-16    3.31135e-01    3.04662e-04    1.47171e-01    3.67903e-02    3.67927e-02    3.67955e-02    3.67927e-02    9.19755e-03    9.19888e-03    9.19888e-03    9.19755e-03    1.47172e-01    3.67929e-02    3.67929e-02    3.67929e-02    3.67929e-02    9.19822e-03    9.19822e-03    9.19822e-03    9.19822e-03
    3.00000e+01    0.00000e+00   -2.51691e-05   -5.23872e-17    3.31135e-01    3.04642e-04    1.47171e-01    3.67901e-02    3.67927e-02    3.67957e-02    3.67927e-02    9.19752e-03    9.19891e-03    9.19891e-03    9.19752e-03    1.47172e-01    3.67929e-02    3.67929e-02    3.67929e-02    3.67929e-02    9.19822e-03    9.19822e-03    9.19822e-03    9.19822e-03
    3.10000e+01    0.00000e+00   -2.62832e-05   -6.28647e-17    3.31135e-01    3.04622e-04    1.47171e-01    3.67900e-02    3.67927e-02    3.67958e-02    3.67927e-02    9.19748e-03    9.19894e-03    9.19894e-03    9.19748e-03    1.47172e-01    3.67929e-02    3.67929e-02    3.67929e-02    3.67929e-02    9.19822e-03    9.19822e-03    9.19822e-03    9.19822e-03
    3.20000e+01    0.00000e+00   -2.73071e-05   -4.19098e-17    3.31135e-01    3.04602e-04    1.47171e-01    3.67899e-02    3.67927e-02    3.67959e-02    3.67927e-02    9.19745e-03    9.19897e-03    9.19897e-03    9.19745e-03    1.47172e-01    3.67929e-02    3.67929e-02    3.67929e-02    3.67929e-02    9.19822e-03    9.19822e-03    9.19822e-03    9.19822e-03
    3.30000e+01    0.00000e+00   -2.82080e-05   -3.14323e-17    3.31135e-01    3.04582e-04    1.47171e-01    3.67897e-02    3.67927e-02    3.67959e-02    3.67927e-02    9.19742e-03    9.19899e-03    9.19899e-03    9.19742e-03    1.47172e-01    3.67929e-02    3.67929e-02    3.67929e-02    3.67929e-02    9.19822e-03    9.19822e-03    9.19822e-03    9.19822e-03
    3.40000e+01    0.00000e+00   -2.89506e-05   -1.10013e-16    3.31135e-01    3.04562e-04    1.47171e-01    3.67896e-02    3.67927e-02    3.67960e-02    3.67927e-02    9.19740e-03    9.19901e-03    9.19901e-03    9.19740e-03    1.47172e-01    3.67929e-02    3.67929e-02    3.67929e-02    3.67929e-02    9.19822e-03    9.19822e-03    9.19822e-03    9.19822e-03
    3.50000e+01    0.00000e+00   -2.94985e-05   -7.85809e-17    3.31135e-01    3.04543e-04    1.47171e-01    3.67895e-02    3.67928e-02    3.67960e-02    3.67928e-02    9.19738e-03    9.19902e-03    9.19902e-03    9.19738e-03    1.47172e-01    3.67929e-02    3.67929e-02    3.67929e-02    3.67929e-02    9.19822e-03    9.19822e-03    9.19822e-03    9.19822e-03
    3.60000e+01    0.00000e+00   -2.98144e-05   -8.38196e-17    3.31134e-01    3.04524e-04    1.47171e-01    3.67895e-02    3.67928e-02    3.67960e-02    3.67928e-02    9.19737e-03    9.19903e-03    9.19903e-03    9.19737e-03    1.47172e-01    3.67929e-02    3.67929e-02    3.67929e-02    3.67929e-02    9.19822e-03    9.19822e-03    9.19822e-03    9.19822e-03
    3.70000e+01    0.00000e+00   -2.98622e-05   -8.38197e-17    3.31134e-01    3.04506e-04    1.47171e-01    3.67894e-02    3.67928e-02    3.67960e-02    3.67928e-02    9.19736e-03    9.19903e-03    9.19903e-03    9.19736e-03    1.47172e-01    3.67929e-02    3.67929e-02    3.67929e-02    3.67929e-02    9.19822e-03    9.19822e-03    9.19822e-03    9.19822e-03
    3.80000e+01    0.00000e+00   -2.96078e-05   -7.85810e-17    3.31134e-01    3.04488e-04    1.47171e-01    3.67894e-02    3.67928e-02    3.67959e-02    3.67928e-02    9.19737e-03    9.19902e-03    9.19902e-03    9.19737e-03    1.47172e-01    3.67929e-02    3.67929e-02    3.67929e-02    3.67929e-02    9.19822e-03    9.19822e-03    9.19822e-03    9.19822e-03
    3.90000e+01    0.00000e+00   -2.90210e-05   -9.95359e-17    3.31134e-01    3.04472e-04    1.47171e-01    3.67894e-02    3.67928e-02    3.67958e-02    3.67928e-02    9.19738e-03    9.19900e-03    9.19900e-03    9.19738e-03    1.47172e-01    3.67929e-02    3.67929e-02    3.67929e-02    3.67929e-02    9.19822e-03    9.19822e-03    9.19822e-03    9.19822e-03
    4.00000e+01    0.00000e+00   -2.80768e-05   -8.38197e-17    3.31134e-01    3.04457e-04    1.47171e-01    3.67895e-02    3.67929e-02    3.67956e-02    3.67929e-02    9.19740e-03    9.19897e-03    9.19897e-03    9.19740e-03    1.47172e-01    3.67929e-02    3.67929e-02    3.67929e-02    3.67929e-02    9.19822e-03    9.19822e-03    9.19822e-03    9.19822e-03
    4.10000e+01    0.00000e+00   -2.67574e-05   -8.90585e-17    3.31134e-01    3.04443e-04    1.47171e-01    3.67896e-02    3.67929e-02    3.67954e-02    3.67929e-02    9.19744e-03    9.19894e-03    9.19894e-03    9.19744e-03    1.47172e-01    3.67929e-02    3.67929e-02    3.67929e-02    3.67929e-02    9.19822e-03    9.19822e-03    9.19822e-03    9.19822e-03
    4.20000e+01    0.00000e+00   -2.50534e-05   -7.33423e-17    3.31134e-01    3.04431e-04    1.47171e-01    3.67897e-02    3.67930e-02    3.67952e-02    3.67930e-02    9.19748e-03    9.19889e-03    9.19889e-03    9.19748e-03    1.47172e-01    3.67929e-02    3.67929e-02    3.67929e-02    3.67929e-02    9.19822e-03    9.19822e-03    9.19822e-03    9.19822e-03
    4.30000e+01    0.00000e+00   -2.29653e-05   -1.15252e-16    3.31134e-01    3.04420e-04    1.47171e-01    3.67899e-02    3.67930e-02    3.67949e-02    3.67930e-02    9.19754e-03    9.19883e-03    9.19883e-03    9.19754e-03    1.47172e-01    3.67929e-02    3.67929e-02    3.67929e-02    3.67929e-02    9.19822e-03    9.19822e-03    9.19822e-03    9.19822e-03
    4.40000e+01    0.00000e+00   -2.05045e-05   -5.76261e-17    3.31134e-01    3.04411e-04    1.47171e-01    3.67901e-02    3.67930e-02    3.67946e-02    3.67930e-02    9.19761e-03    9.19876e-03    9.19876e-03    9.19761e-03    1.47172e-01    3.67929e-02    3.67929e-02    3.67929e-02    3.67929e-02    9.19822e-03    9.19822e-03    9.19822e-03    9.19822e-03
    4.50000e+01    0.00000e+00   -1.76942e-05   -5.76261e-17    3.31134e-01    3.04403e-04    1.47171e-01    3.67904e-02    3.67931e-02    3.67943e-02    3.67931e-02    9.19768e-03    9.19868e-03    9.19868e-03    9.19768e-03    1.47172e-01    3.67929e-02    3.67929e-02    3.67929e-02    3.67929e-02    9.19822e-03    9.19822e-03    9.19822e-03    9.19822e-03
    4.60000e+01    0.00000e+00   -1.45695e-05   -4.71486e-17    3.31134e-01    3.04396e-04    1.47171e-01    3.67907e-02    3.67931e-02    3.67939e-02    3.67931e-02    9.19777e-03    9.19859e-03    9.19859e-03    9.19777e-03    1.47172e-01    3.67929e-02    3.67929e-02    3.67929e-02    3.67929e-02    9.19822e-03    9.19822e-03    9.19822e-03    9.19822e-03
    4.70000e+01    0.00000e+00   -1.11770e-05   -4.71486e-17    3.31134e-01    3.04391e-04    1.47171e-01    3.67911e-02    3.67931e-02    3.67935e-02    3.67931e-02    9.19786e-03    9.19849e-03    9.19849e-03    9.19786e-03    1.47172e-01    3.67929e-02    3.67929e-02    3.67929e-02    3.67929e-02    9.19822e-03    9.19822e-03    9.19822e-03    9.19822e-03
    4.80000e+01    0.00000e+00   -7.57336e-06   -4.19099e-17    3.31134e-01    3.04388e-04    1.47171e-01    3.67914e-02    3.67931e-02    3.67931e-02    3.67931e-02    9.19797e-03    9.19839e-03    9.19839e-03    9.19797e-03    1.47172e-01    3.67929e-02    3.67929e-02    3.67929e-02    3.67929e-02    9.19822e-03    9.19822e-03    9.19822e-03    9.19822e-03
    4.90000e+01    0.00000e+00   -3.82392e-06   -3.66712e-17    3.31134e-01    3.04386e-04    1.47171e-01    3.67918e-02    3.67931e-02    3.67927e-02    3.67931e-02    9.19807e-03    9.19829e-03    9.19829e-03    9.19807e-03    1.47172e-01    3.67929e-02    3.67929e-02    3.67929e-02    3.67929e-02    9.19822e-03    9.19822e-03    9.19822e-03    9.19822e-03
    5.00000e+01    0.00000e+00   -9.42973e-17   -2.09549e-17    3.31134e-01    3.04385e-04    1.47171e-01    3.67922e-02    3.67931e-02    3.67922e-02    3.67931e-02    9.19818e-03    9.19818e-03    9.19818e-03    9.19818e-03    1.47172e-01    3.67929e-02    3.67929e-02    3.67929e-02    3.67929e-02    9.19822e-03    9.19822e-03    9.19822e-03    9.19822e-03
    5.10000e+01    0.00000e+00    3.82392e-06   -4.71486e-17    3.31134e-01    3.04386e-04    1.47171e-01    3.67927e-02    3.67931e-02    3.67918e-02    3.67931e-02    9.19829e-03    9.19807e-03    9.19807e-03    9.19829e-03    1.47172e-01    3.67929e-02    3.67929e-02    3.67929e-02    3.67929e-02    9.19822e-03    9.19822e-03    9.19822e-03    9.19822e-03
    5.20000e+01    0.00000e+00    7.57336e-06   -3.66712e-17    3.31134e-01    3.04388e-04    1.47171e-01    3.67931e-02    3.67931e-02    3.67914e-02    3.67931e-02    9.19839e-03    9.19797e-03    9.19797e-03    9.19839e-03    1.47172e-01    3.67929e-02    3.67929e-02    3.67929e-02    3.67929e-02    9.19822e-03    9.19822e-03    9.19822e-03    9.19822e-03
    5.30000e+01    0.00000e+00    1.11770e-05    0.00000e+00    3.31134e-01    3.04391e-04    1.47171e-01    3.67935e-02    3.67931e-02    3.67911e-02    3.67931e-02    9.19849e-03    9.19786e-03    9.19786e-03    9.19849e-03    1.47172e-01    3.67929e-02    3.67929e-02    3.67929e-02    3.67929e-02    9.19822e-03    9.19822e-03    9.19822e-03    9.19822e-03
    5.40000e+01    0.00000e+00    1.45695e-05   -1.57162e-17    3.31134e-01    3.04396e-04    1.47171e-01    3.67939e-02    3.67931e-02    3.67907e-02    3.67931e-02    9.19859e-03    9.19777e-03    9.19777e-03    9.19859e-03    1.47172e-01    3.67929e-02    3.67929e-02    3.67929e-02    3.67929e-02    9.19822e-03    9.19822e-03    9.19822e-03    9.19822e-03
    5.50000e+01    0.00000e+00    1.76942e-05    3.14324e-17    3.31134e-01    3.04403e-04    1.47171e-01    3.67943e-02    3.67931e-02    3.67904e-02    3.67931e-02    9.19868e-03    9.19768e-03    9.19768e-03    9.19868e-03    1.47172e-01    3.67929e-02    3.67929e-02    3.67929e-02    3.67929e-02    9.19822e-03    9.19822e-03    9.19822e-03    9.19822e-03
    5.60000e+01    0.00000e+00    2.05045e-05    6.28648e-17    3.31134e-01    3.04411e-04    1.47171e-01    3.67946e-02    3.67930e-02    3.67901e-02    3.67930e-02    9.19876e-03    9.19761e-03    9.19761e-03    9.19876e-03    1.47172e-01    3.67929e-02    3.67929e-02    3.67929e-02    3.67929e-02    9.19822e-03    9.19822e-03    9.19822e-03    9.19822e-03
    5.70000e+01    0.00000e+00    2.29653e-05    4.19099e-17    3.31134e-01    3.04420e-04    1.47171e-01    3.67949e-02    3.67930e-02    3.67899e-02    3.67930e-02    9.19883e-03    9.19754e-03    9.19754e-03    9.19883e-03    1.47172e-01    3.67929e-02    3.67929e-02    3.67929e-02    3.67929e-02    9.19822e-03    9.19822e-03    9.19822e-03    9.19822e-03
    5.80000e+01    0.00000e+00    2.50534e-05   -4.71486e-17    3.31134e-01    3.04431e-04    1.47171e-01    3.67952e-02    3.67930e-02    3.67897e-02    3.67930e-02    9.19889e-03    9.19748e-03    9.19748e-03    9.19889e-03    1.47172e-01    3.67929e-02    3.67929e-02    3.67929e-02    3.67929e-02    9.19822e-03    9.19822e-03    9.19822e-03    9.19822e-03
    5.90000e+01    0.00000e+00    2.67574e-05   -1.57162e-17    3.31134e-01    3.04443e-04    1.47171e-01    3.67954e-02    3.67929e-02    3.67896e-02    3.67929e-02    9.19894e-03    9.19744e-03    9.19744e-03    9.19894e-03    1.47172e-01    3.67929e-02    3.67929e-02    3.67929e-02    3.67929e-02    9.19822e-03    9.19822e-03    9.19822e-03    9.19822e-03
    6.00000e+01    0.00000e+00    2.80768e-05    0.00000e+00    3.31134e-01    3.04457e-04    1.47171e-01    3.67956e-02    3.67929e-02    3.67895e-02    3.67929e-02    9.19897e-03    9.19740e-03    9.19740e-03    9.19897e-03    1.47172e-01    3.67929e-02    3.67929e-02    3.67929e-02    3.67929e-02    9.19822e-03    9.19822e-03    9.19822e-03    9.19822e-03
    6.10000e+01    0.00000e+00    2.90210e-05   -3.66711e-17    3.31134e-01    3.04472e-04    1.47171e-01    3.67958e-02    3.67928e-02    3.67894e-02    3.67928e-02    9.19900e-03    9.19738e-03    9.19738e-03    9.19900e-03    1.47172e-01    3.67929e-02    3.67929e-02    3.67929e-02    3.67929e-02    9.19822e-03    9.19822e-03    9.19822e-03    9.19822e-03
    6.20000e+01    0.00000e+00    2.96078e-05   -6.28648e-17    3.31134e-01    3.04488e-04    1.47171e-01    3.67959e-02    3.67928e-02    3.67894e-02    3.67928e-02    9.19902e-03    9.19737e-03    9.19737e-03    9.19902e-03    1.47172e-01    3.67929e-02    3.67929e-02    3.67929e-02    3.67929e-02    9.19822e-03    9.19822e-03    9.19822e-03    9.19822e-03
    6.30000e+01    0.00000e+00    2.98622e-05   -9.42971e-17    3.31134e-01    3.04506e-04    1.47171e-01    3.67960e-02    3.67928e-02    3.67894e-02    3.67928e-02    9.19903e-03    9.19736e-03    9.19736e-03    9.19903e-03    1.47172e-01    3.67929e-02    3.67929e-02    3.67929e-02    3.67929e-02    9.19822e-03    9.19822e-03    9.19822e-03    9.19822e-03
    6.40000e+01    0.00000e+00    2.98144e-05   -1.20491e-16    3.31134e-01    3.04524e-04    1.47171e-01    3.67960e-02    3.67928e-02    3.67895e-02    3.67928e-02    9.19903e-03    9.19737e-03    9.19737e-03    9.19903e-03    1.47172e-01    3.67929e-02    3.67929e-02    3.67929e-02    3.67929e-02    9.19822e-03    9.19822e-03    9.19822e-03    9.19822e-03
    6.50000e+01    0.00000e+00    2.94985e-05   -1.30968e-16    3.31135e-01    3.04543e-04    1.47171e-01    3.67960e-02    3.67928e-02    3.67895e-02    3.67928e-02    9.19902e-03    9.19738e-03    9.19738e-03    9.19902e-03    1.47172e-01    3.67929e-02    3.67929e-02    3.67929e-02    3.67929e-02    9.19822e-03    9.19822e-03    9.19822e-03    9.19822e-03
    6.60000e+01    0.00000e+00    2.89506e-05   -3.66711e-17    3.31135e-01    3.04562e-04    1.47171e-01    3.67960e-02    3.67927e-02    3.67896e-02    3.67927e-02    9.19901e-03    9.19740e-03    9.19740e-03    9.19901e-03    1.47172e-01    3.67929e-02    3.67929e-02    3.67929e-02    3.67929e-02    9.19822e-03    9.19822e-03    9.19822e-03    9.19822e-03
    6.70000e+01    0.00000e+00    2.82080e-05    0.00000e+00    3.31135e-01    3.04582e-04    1.47171e-01    3.67959e-02    3.67927e-02    3.67897e-02    3.67927e-02    9.19899e-03    9.19742e-03    9.19742e-03    9.19899e-03    1.47172e-01    3.67929e-02    3.67929e-02    3.67929e-02    3.67929e-02    9.19822e-03    9.19822e-03    9.19822e-03    9.19822e-03
    6.80000e+01    0.00000e+00    2.73071e-05   -6.28647e-17    3.31135e-01    3.04602e-04    1.47171e-01    3.67959e-02    3.67927e-02    3.67899e-02    3.67927e-02    9.19897e-03    9.19745e-03    9.19745e-03    9.19897e-03    1.47172e-01    3.67929e-02    3.67929e-02    3.67929e-02    3.67929e-02    9.19822e-03    9.19822e-03    9.19822e-03    9.19822e-03
    6.90000e+01    0.00000e+00    2.62832e-05   -4.71485e-17    3.31135e-01    3.04622e-04    1.47171e-01    3.67958e-02    3.67927e-02    3.67900e-02    3.67927e-02    9.19894e-03    9.19748e-03    9.19748e-03    9.19894e-03    1.47172e-01    3.67929e-02    3.67929e-02    3.67929e-02    3.67929e-02    9.19822e-03    9.19822e-03    9.19822e-03    9.19822e-03
    7.00000e+01    0.00000e+00    2.51691e-05   -6.81034e-17    3.31135e-01    3.04642e-04    1.47171e-01    3.67957e-02    3.67927e-02    3.67901e-02    3.67927e-02    9.19891e-03    9.19752e-03    9.19752e-03    9.19891e-03    1.47172e-01    3.67929e-02    3.67929e-02    3.67929e-02    3.67929e-02    9.19822e-03    9.19822e-03    9.19822e-03    9.19822e-03
    7.10000e+01    0.00000e+00    2.39945e-05   -2.09549e-17    3.31135e-01    3.04662e-04    1.47171e-01    3.67955e-02    3.67927e-02    3.67903e-02    3.67927e-02    9.19888e-03    9.19755e-03    9.19755e-03    9.19888e-03    1.47172e-01    3.67929e-02    3.67929e-02    3.67929e-02    3.67929e-02    9.19822e-03    9.19822e-03    9.19822e-03    9.19822e-03
    7.20000e+01    0.00000e+00    2.27859e-05   -2.09549e-17    3.31135e-01    3.04681e-04    1.47171e-01    3.67954e-02    3.67927e-02    3.67904e-02    3.67927e-02    9.19885e-03    9.19759e-03    9.19759e-03    9.19885e-03    1.47172e-01    3.67929e-02    3.67929e-02    3.67929e-02    3.67929e-02    9.19822e-03    9.19822e-03    9.19822e-03    9.19822e-03
    7.30000e+01    0.00000e+00    2.15657e-05   -2.09549e-17    3.31135e-01    3.04700e-04    1.47171e-01    3.67953e-02    3.67927e-02    3.67906e-02    3.67927e-02    9.19882e-03    9.19763e-03    9.19763e-03    9.19882e-03    1.47172e-01    3.67929e-02    3.67929e-02    3.67929e-02    3.67929e-02    9.19822e-03    9.19822e-03    9.19822e-03    9.19822e-03
    7.40000e+01    0.00000e+00    2.03529e-05   -1.04774e-17    3.31135e-01    3.04719e-04    1.47171e-01    3.67952e-02    3.67928e-02    3.67907e-02    3.67928e-02    9.19878e-03    9.19766e-03    9.19766e-03    9.19878e-03    1.47172e-01    3.67929e-02    3.67929e-02    3.67929e-02    3.67929e-02    9.19822e-03    9.19822e-03    9.19822e-03    9.19822e-03
    7.50000e+01    0.00000e+00    1.91626e-05   -5.23872e-18    3.31135e-01    3.04737e-04    1.47171e-01    3.67950e-02    3.67928e-02    3.67908e-02    3.67928e-02    9.19875e-03    9.19770e-03    9.19770e-03    9.19875e-03    1.47172e-01    3.67929e-02    3.67929e-02    3.67929e-02    3.67929e-02    9.19822e-03    9.19822e-03    9.19822e-03    9.19822e-03
    7.60000e+01    0.00000e+00    1.80062e-05    1.04774e-17    3.31135e-01    3.04754e-04    1.47171e-01    3.67949e-02    3.67928e-02    3.67910e-02    3.67928e-02    9.19872e-03    9.19773e-03    9.19773e-03    9.19872e-03    1.47172e-01    3.67929e-02    3.67929e-02    3.67929e-02    3.67929e-02    9.19822e-03    9.19822e-03    9.19822e-03    9.19822e-03
    7.70000e+01    0.00000e+00    1.68921e-05    2.09549e-17    3.31135e-01    3.04770e-04    1.47171e-01    3.67948e-02    3.67928e-02    3.67911e-02    3.67928e-02    9.19870e-03    9.19777e-03    9.19777e-03    9.19870e-03    1.47172e-01    3.67929e-02    3.67929e-02    3.67929e-02    3.67929e-02    9.19822e-03    9.19822e-03    9.19822e-03    9.19822e-03
    7.80000e+01    0.00000e+00    1.58254e-05    0.00000e+00    3.31135e-01    3.04786e-04    1.47171e-01    3.67947e-02    3.67928e-02    3.67912e-02    3.67928e-02    9.19867e-03    9.19780e-03    9.19780e-03    9.19867e-03    1.47172e-01    3.67929e-02    3.67929e-02    3.67929e-02    3.67929e-02    9.19822e-03    9.19822e-03    9.19822e-03    9.19822e-03
    7.90000e+01    0.00000e+00    1.48089e-05    0.00000e+00    3.31136e-01    3.04800e-04    1.47171e-01    3.67946e-02    3.67928e-02    3.67913e-02    3.67928e-02    9.19864e-03    9.19783e-03    9.19783e-03    9.19864e-03    1.47172e-01    3.67929e-02    3.67929e-02    3.67929e-02    3.67929e-02    9.19822e-03    9.19822e-03    9.19822e-03    9.19822e-03
    8.00000e+01    0.00000e+00    1.38433e-05   -3.66710e-17    3.31136e-01    3.04814e-04    1.47171e-01    3.67945e-02    3.67928e-02    3.67914e-02    3.67928e-02    9.19862e-03    9.19786e-03    9.19786e-03    9.19862e-03    1.47172e-01    3.67929e-02    3.67929e-02    3.67929e-02    3.67929e-02    9.19822e-03    9.19822e-03    9.19822e-03    9.19822e-03
    8.10000e+01    0.00000e+00    1.29272e-05   -3.66710e-17    3.31136e-01    3.04827e-04    1.47171e-01    3.67944e-02    3.67929e-02    3.67915e-02    3.67929e-02    9.19859e-03    9.19788e-03    9.19788e-03    9.19859e-03    1.47172e-01    3.67929e-02    3.67929e-02    3.67929e-02    3.67929e-02    9.19822e-03    9.19822e-03    9.19822e-03    9.19822e-03