TITLE="LBM output"
VARIABLES = "X", "Y", "Ux","Uy","density","pressure","f0","f1","f2","f3","f4","f5","f6","f7","f8","feq0","feq1","feq2","feq3","feq4","feq5","feq6","feq7","feq8",
ZONE T = "fluid", I=101, J=101, F=POINT
    0.00000e+00    0.00000e+00   -3.66872e-17   -7.33744e-17    3.30989e-01    2.65699e-04    1.47106e-01    3.67790e-02    3.67790e-02    3.67790e-02    3.67790e-02    9.19537e-03    9.19537e-03    9.19537e-03    9.19537e-03    1.47106e-01    3.67766e-02    3.67766e-02    3.67766e-02    3.67766e-02    9.19414e-03    9.19414e-03    9.19414e-03    9.19414e-03
    1.00000e+00    0.00000e+00   -2.21807e-05   -1.20544e-16    3.30989e-01    2.65728e-04    1.47106e-01    3.67766e-02    3.67790e-02    3.67815e-02    3.67790e-02    9.19475e-03    9.19599e-03    9.19599e-03    9.19475e-03    1.47106e-01    3.67766e-02    3.67766e-02    3.67766e-02    3.67766e-02    9.19414e-03    9.19414e-03    9.19414e-03    9.19414e-03
    2.00000e+00    0.00000e+00   -4.42821e-05   -9.43384e-17    3.30989e-01    2.65808e-04    1.47106e-01    3.67741e-02    3.67791e-02    3.67840e-02    3.67791e-02    9.19415e-03    9.19661e-03    9.19661e-03    9.19415e-03    1.47106e-01    3.67766e-02    3.67766e-02    3.67766e-02    3.67766e-02    9.19414e-03    9.19414e-03    9.19414e-03    9.19414e-03
    3.00000e+00    0.00000e+00   -6.62171e-05   -8.38563e-17    3.30990e-01    2.65941e-04    1.47107e-01    3.67717e-02    3.67791e-02    3.67864e-02    3.67791e-02    9.19355e-03    9.19722e-03    9.19722e-03    9.19355e-03    1.47106e-01    3.67766e-02    3.67766e-02    3.67766e-02    3.67766e-02    9.19414e-03    9.19414e-03    9.19414e-03    9.19414e-03
    4.00000e+00    0.00000e+00   -8.79033e-05   -6.81331e-17    3.30991e-01    2.66126e-04    1.47107e-01    3.67694e-02    3.67792e-02    3.67889e-02    3.67792e-02    9.19296e-03    9.19784e-03    9.19784e-03    9.19296e-03    1.47106e-01    3.67766e-02    3.67766e-02    3.67766e-02    3.67766e-02    9.19414e-03    9.19414e-03    9.19414e-03    9.19414e-03
    5.00000e+00    0.00000e+00   -1.09259e-04   -8.38559e-17    3.30992e-01    2.66363e-04    1.47107e-01    3.67671e-02    3.67793e-02    3.67913e-02    3.67793e-02    9.19238e-03    9.19845e-03    9.19845e-03    9.19238e-03    1.47106e-01    3.67766e-02    3.67766e-02    3.67766e-02    3.67766e-02    9.19414e-03    9.19414e-03    9.19414e-03    9.19414e-03
    6.00000e+00    0.00000e+00   -1.30204e-04   -5.24097e-17    3.30993e-01    2.66651e-04    1.47108e-01    3.67648e-02    3.67795e-02    3.67937e-02    3.67795e-02    9.19182e-03    9.19905e-03    9.19905e-03    9.19182e-03    1.47106e-01    3.67766e-02    3.67766e-02    3.67766e-02    3.67766e-02    9.19414e-03    9.19414e-03    9.19414e-03    9.19414e-03
    7.00000e+00    0.00000e+00   -1.50660e-04   -2.62048e-17    3.30994e-01    2.66987e-04    1.47108e-01    3.67626e-02    3.67796e-02    3.67960e-02    3.67796e-02    9.19128e-03    9.19965e-03    9.19965e-03    9.19128e-03    1.47106e-01    3.67766e-02    3.67766e-02    3.67766e-02    3.67766e-02    9.19414e-03    9.19414e-03    9.19414e-03    9.19414e-03
    8.00000e+00    0.00000e+00   -1.70551e-04   -1.57228e-17    3.30995e-01    2.67372e-04    1.47109e-01    3.67605e-02    3.67798e-02    3.67983e-02    3.67798e-02    9.19075e-03    9.20023e-03    9.20023e-03    9.19075e-03    1.47106e-01    3.67766e-02    3.67766e-02    3.67766e-02    3.67766e-02    9.19414e-03    9.19414e-03    9.19414e-03    9.19414e-03
    9.00000e+00    0.00000e+00   -1.89801e-04   -5.24091e-17    3.30997e-01    2.67803e-04    1.47110e-01    3.67585e-02    3.67800e-02    3.68006e-02    3.67800e-02    9.19025e-03    9.20079e-03    9.20079e-03    9.19025e-03    1.47106e-01    3.67766e-02    3.67766e-02    3.67766e-02    3.67766e-02    9.19414e-03    9.19414e-03    9.19414e-03    9.19414e-03
    1.00000e+01    0.00000e+00   -2.08340e-04   -1.25781e-16    3.30999e-01    2.68278e-04    1.47111e-01    3.67565e-02    3.67802e-02    3.68028e-02    3.67802e-02    9.18977e-03    9.20134e-03    9.20134e-03    9.18977e-03    1.47106e-01    3.67766e-02    3.67766e-02    3.67766e-02    3.67766e-02    9.19414e-03    9.19414e-03    9.19414e-03    9.19414e-03
    1.10000e+01    0.00000e+00   -2.26098e-04   -1.10058e-16    3.31001e-01    2.68796e-04    1.47111e-01    3.67547e-02    3.67804e-02    3.68049e-02    3.67804e-02    9.18931e-03    9.20187e-03    9.20187e-03    9.18931e-03    1.47106e-01    3.67766e-02    3.67766e-02    3.67766e-02    3.67766e-02    9.19414e-03    9.19414e-03    9.19414e-03    9.19414e-03
    1.20000e+01    0.00000e+00   -2.43010e-04   -7.86122e-17    3.31003e-01    2.69354e-04    1.47112e-01    3.67530e-02    3.67807e-02    3.68069e-02    3.67807e-02    9.18888e-03    9.20238e-03    9.20238e-03    9.18888e-03    1.47106e-01    3.67766e-02    3.67766e-02    3.67766e-02    3.67766e-02    9.19414e-03    9.19414e-03    9.19414e-03    9.19414e-03
    1.30000e+01    0.00000e+00   -2.59013e-04   -6.81301e-17    3.31005e-01    2.69949e-04    1.47113e-01    3.67513e-02    3.67810e-02    3.68088e-02    3.67810e-02    9.18848e-03    9.20287e-03    9.20287e-03    9.18848e-03    1.47106e-01    3.67766e-02    3.67766e-02    3.67766e-02    3.67766e-02    9.19414e-03    9.19414e-03    9.19414e-03    9.19414e-03
    1.40000e+01    0.00000e+00   -2.74048e-04   -3.14444e-17    3.31007e-01    2.70580e-04    1.47114e-01    3.67498e-02    3.67813e-02    3.68106e-02    3.67813e-02    9.18811e-03    9.20333e-03    9.20333e-03    9.18811e-03    1.47106e-01    3.67766e-02    3.67766e-02    3.67766e-02    3.67766e-02    9.19414e-03    9.19414e-03    9.19414e-03    9.19414e-03
    1.50000e+01    0.00000e+00   -2.88061e-04   -1.04814e-17    3.31010e-01    2.71244e-04    1.47115e-01    3.67484e-02    3.67816e-02    3.68123e-02    3.67816e-02    9.18777e-03    9.20377e-03    9.20377e-03    9.18777e-03    1.47106e-01    3.67766e-02    3.67766e-02    3.67766e-02    3.67766e-02    9.19414e-03    9.19414e-03    9.19414e-03    9.19414e-03
    1.60000e+01    0.00000e+00   -3.01001e-04   -2.09626e-17    3.31012e-01    2.71938e-04    1.47117e-01    3.67472e-02    3.67819e-02    3.68139e-02    3.67819e-02    9.18746e-03    9.20418e-03    9.20418e-03    9.18746e-03    1.47106e-01    3.67766e-02    3.67766e-02    3.67766e-02    3.67766e-02    9.19414e-03    9.19414e-03    9.19414e-03    9.19414e-03
    1.70000e+01    0.00000e+00   -3.12820e-04   -3.14437e-17    3.31015e-01    2.72658e-04    1.47118e-01    3.67460e-02    3.67822e-02    3.68154e-02    3.67822e-02    9.18718e-03    9.20456e-03    9.20456e-03    9.18718e-03    1.47106e-01    3.67766e-02    3.67766e-02    3.67766e-02    3.67766e-02    9.19414e-03    9.19414e-03    9.19414e-03    9.19414e-03
    1.80000e+01    0.00000e+00   -3.23478e-04   -2.62029e-17    3.31018e-01    2.73402e-04    1.47119e-01    3.67450e-02    3.67826e-02    3.68168e-02    3.67826e-02    9.18694e-03    9.20491e-03    9.20491e-03    9.18694e-03    1.47106e-01    3.67766e-02    3.67766e-02    3.67766e-02    3.67766e-02    9.19414e-03    9.19414e-03    9.19414e-03    9.19414e-03
    1.90000e+01    0.00000e+00   -3.32935e-04   -2.09621e-17    3.31021e-01    2.74167e-04    1.47120e-01    3.67442e-02    3.67829e-02    3.68180e-02    3.67829e-02    9.18673e-03    9.20523e-03    9.20523e-03    9.18673e-03    1.47106e-01    3.67766e-02    3.67766e-02    3.67766e-02    3.67766e-02    9.19414e-03    9.19414e-03    9.19414e-03    9.19414e-03
    2.00000e+01    0.00000e+00   -3.41158e-04   -5.24048e-17    3.31024e-01    2.74949e-04    1.47122e-01    3.67434e-02    3.67833e-02    3.68191e-02    3.67833e-02    9.18656e-03    9.20551e-03    9.20551e-03    9.18656e-03    1.47106e-01    3.67766e-02    3.67766e-02    3.67766e-02    3.67766e-02    9.19414e-03    9.19414e-03    9.19414e-03    9.19414e-03
    2.10000e+01    0.00000e+00   -3.48118e-04   -3.14426e-17    3.31027e-01    2.75746e-04    1.47123e-01    3.67428e-02    3.67837e-02    3.68201e-02    3.67837e-02    9.18642e-03    9.20576e-03    9.20576e-03    9.18642e-03    1.47106e-01    3.67766e-02    3.67766e-02    3.67766e-02    3.67766e-02    9.19414e-03    9.19414e-03    9.19414e-03    9.19414e-03
    2.20000e+01    0.00000e+00   -3.53789e-04   -1.57212e-17    3.31030e-01    2.76553e-04    1.47124e-01    3.67424e-02    3.67840e-02    3.68209e-02    3.67840e-02    9.18632e-03    9.20598e-03    9.20598e-03    9.18632e-03    1.47106e-01    3.67766e-02    3.67766e-02    3.67766e-02    3.67766e-02    9.19414e-03    9.19414e-03    9.19414e-03    9.19414e-03
    2.30000e+01    0.00000e+00   -3.58150e-04   -5.24034e-18    3.31033e-01    2.77368e-04    1.47126e-01    3.67421e-02    3.67844e-02    3.68216e-02    3.67844e-02    9.18626e-03    9.20616e-03    9.20616e-03    9.18626e-03    1.47106e-01    3.67766e-02    3.67766e-02    3.67766e-02    3.67766e-02    9.19414e-03    9.19414e-03    9.19414e-03    9.19414e-03
    2.40000e+01    0.00000e+00   -3.61185e-04   -6.28835e-17    3.31036e-01    2.78187e-04    1.47127e-01    3.67420e-02    3.67848e-02    3.68221e-02    3.67848e-02    9.18624e-03    9.20630e-03    9.20630e-03    9.18624e-03    1.47106e-01    3.67766e-02    3.67766e-02    3.67766e-02    3.67766e-02    9.19414e-03    9.19414e-03    9.19414e-03    9.19414e-03
    2.50000e+01    0.00000e+00   -3.62878e-04   -1.04805e-16    3.31039e-01    2.79007e-04    1.47128e-01    3.67420e-02    3.67852e-02    3.68225e-02    3.67852e-02    9.18625e-03    9.20640e-03    9.20640e-03    9.18625e-03    1.47106e-01    3.67766e-02    3.67766e-02    3.67766e-02    3.67766e-02    9.19414e-03    9.19414e-03    9.19414e-03    9.19414e-03
    2.60000e+01    0.00000e+00   -3.63220e-04   -6.81225e-17    3.31042e-01    2.79824e-04    1.47130e-01    3.67421e-02    3.67855e-02    3.68227e-02    3.67855e-02    9.18630e-03    9.20647e-03    9.20647e-03    9.18630e-03    1.47106e-01    3.67766e-02    3.67766e-02    3.67766e-02    3.67766e-02    9.19414e-03    9.19414e-03    9.19414e-03    9.19414e-03
    2.70000e+01    0.00000e+00   -3.62204e-04   -3.66810e-17    3.31045e-01    2.80635e-04    1.47131e-01    3.67424e-02    3.67859e-02    3.68228e-02    3.67859e-02    9.18638e-03    9.20650e-03    9.20650e-03    9.18638e-03    1.47106e-01    3.67766e-02    3.67766e-02    3.67766e-02    3.67766e-02    9.19414e-03    9.19414e-03    9.19414e-03    9.19414e-03
    2.80000e+01    0.00000e+00   -3.59826e-04    2.09604e-17    3.31048e-01    2.81438e-04    1.47132e-01    3.67429e-02    3.67863e-02    3.68227e-02    3.67863e-02    9.18650e-03    9.20649e-03    9.20649e-03    9.18650e-03    1.47106e-01    3.67766e-02    3.67766e-02    3.67766e-02    3.67766e-02    9.19414e-03    9.19414e-03    9.19414e-03    9.19414e-03
    2.90000e+01    0.00000e+00   -3.56082e-04    5.24005e-17    3.31051e-01    2.82228e-04    1.47134e-01    3.67435e-02    3.67867e-02    3.68224e-02    3.67867e-02    9.18666e-03    9.20645e-03    9.20645e-03    9.18666e-03    1.47106e-01    3.67766e-02    3.67766e-02    3.67766e-02    3.67766e-02    9.19414e-03    9.19414e-03    9.19414e-03    9.19414e-03
    3.00000e+01    0.00000e+00   -3.50975e-04    1.57200e-17    3.31054e-01    2.83002e-04    1.47135e-01    3.67442e-02    3.67871e-02    3.68221e-02    3.67871e-02    9.18686e-03    9.20636e-03    9.20636e-03    9.18686e-03    1.47106e-01    3.67766e-02    3.67766e-02    3.67766e-02    3.67766e-02    9.19414e-03    9.19414e-03    9.19414e-03    9.19414e-03
    3.10000e+01    0.00000e+00   -3.44508e-04    3.14397e-17    3.31057e-01    2.83758e-04    1.47136e-01    3.67451e-02    3.67874e-02    3.68215e-02    3.67874e-02    9.18709e-03    9.20623e-03    9.20623e-03    9.18709e-03    1.47106e-01    3.67766e-02    3.67766e-02    3.67766e-02    3.67766e-02    9.19414e-03    9.19414e-03    9.19414e-03    9.19414e-03
    3.20000e+01    0.00000e+00   -3.36686e-04   -5.23991e-18    3.31059e-01    2.84493e-04    1.47138e-01    3.67461e-02    3.67878e-02    3.68208e-02    3.67878e-02    9.18736e-03    9.20607e-03    9.20607e-03    9.18736e-03    1.47106e-01    3.67766e-02    3.67766e-02    3.67766e-02    3.67766e-02    9.19414e-03    9.19414e-03    9.19414e-03    9.19414e-03
    3.30000e+01    0.00000e+00   -3.27518e-04   -2.61994e-17    3.31062e-01    2.85205e-04    1.47139e-01    3.67473e-02    3.67881e-02    3.68199e-02    3.67881e-02    9.18767e-03    9.20586e-03    9.20586e-03    9.18767e-03    1.47106e-01    3.67766e-02    3.67766e-02    3.67766e-02    3.67766e-02    9.19414e-03    9.19414e-03    9.19414e-03    9.19414e-03
    3.40000e+01    0.00000e+00   -3.17015e-04   -5.23983e-17    3.31065e-01    2.85889e-04    1.47140e-01    3.67486e-02    3.67885e-02    3.68189e-02    3.67885e-02    9.18800e-03    9.20562e-03    9.20562e-03    9.18800e-03    1.47106e-01    3.67766e-02    3.67766e-02    3.67766e-02    3.67766e-02    9.19414e-03    9.19414e-03    9.19414e-03    9.19414e-03
    3.50000e+01    0.00000e+00   -3.05193e-04   -2.61990e-17    3.31067e-01    2.86545e-04    1.47141e-01    3.67501e-02    3.67888e-02    3.68177e-02    3.67888e-02    9.18838e-03    9.20534e-03    9.20534e-03    9.18838e-03    1.47106e-01    3.67766e-02    3.67766e-02    3.67766e-02    3.67766e-02    9.19414e-03    9.19414e-03    9.19414e-03    9.19414e-03
    3.60000e+01    0.00000e+00   -2.92071e-04   -4.71578e-17    3.31070e-01    2.87169e-04    1.47142e-01    3.67516e-02    3.67891e-02    3.68164e-02    3.67891e-02    9.18879e-03    9.20502e-03    9.20502e-03    9.18879e-03    1.47106e-01    3.67766e-02    3.67766e-02    3.67766e-02    3.67766e-02    9.19414e-03    9.19414e-03    9.19414e-03    9.19414e-03
    3.70000e+01    0.00000e+00   -2.77673e-04   -5.23972e-17    3.31072e-01    2.87759e-04    1.47143e-01    3.67533e-02    3.67894e-02    3.68149e-02    3.67894e-02    9.18923e-03    9.20466e-03    9.20466e-03    9.18923e-03    1.47106e-01    3.67766e-02    3.67766e-02    3.67766e-02    3.67766e-02    9.19414e-03    9.19414e-03    9.19414e-03    9.19414e-03
    3.80000e+01    0.00000e+00   -2.62028e-04   -5.23969e-17    3.31074e-01    2.88314e-04    1.47144e-01    3.67552e-02    3.67897e-02    3.68132e-02    3.67897e-02    9.18970e-03    9.20427e-03    9.20427e-03    9.18970e-03    1.47106e-01    3.67766e-02    3.67766e-02    3.67766e-02    3.67766e-02    9.19414e-03    9.19414e-03    9.19414e-03    9.19414e-03
    3.90000e+01    0.00000e+00   -2.45174e-04   -7.33552e-17    3.31076e-01    2.88832e-04    1.47145e-01    3.67571e-02    3.67900e-02    3.68114e-02    3.67900e-02    9.19020e-03    9.20384e-03    9.20384e-03    9.19020e-03    1.47106e-01    3.67766e-02    3.67766e-02    3.67766e-02    3.67766e-02    9.19414e-03    9.19414e-03    9.19414e-03    9.19414e-03
    4.00000e+01    0.00000e+00   -2.27155e-04   -4.71567e-17    3.31078e-01    2.89310e-04    1.47146e-01    3.67592e-02    3.67903e-02    3.68095e-02    3.67903e-02    9.19074e-03    9.20337e-03    9.20337e-03    9.19074e-03    1.47106e-01    3.67766e-02    3.67766e-02    3.67766e-02    3.67766e-02    9.19414e-03    9.19414e-03    9.19414e-03    9.19414e-03
    4.10000e+01    0.00000e+00   -2.08025e-04   -7.33544e-17    3.31079e-01    2.89748e-04    1.47146e-01    3.67614e-02    3.67905e-02    3.68074e-02    3.67905e-02    9.19130e-03    9.20287e-03    9.20287e-03    9.19130e-03    1.47106e-01    3.67766e-02    3.67766e-02    3.67766e-02    3.67766e-02    9.19414e-03    9.19414e-03    9.19414e-03    9.19414e-03
    4.20000e+01    0.00000e+00   -1.87847e-04   -6.28750e-17    3.31081e-01    2.90144e-04    1.47147e-01    3.67637e-02    3.67907e-02    3.68053e-02    3.67907e-02    9.19189e-03    9.20233e-03    9.20233e-03    9.19189e-03    1.47106e-01    3.67766e-02    3.67766e-02    3.67766e-02    3.67766e-02    9.19414e-03    9.19414e-03    9.19414e-03    9.19414e-03
    4.30000e+01    0.00000e+00   -1.66695e-04   -6.81143e-17    3.31082e-01    2.90496e-04    1.47148e-01    3.67660e-02    3.67909e-02    3.68030e-02    3.67909e-02    9.19250e-03    9.20177e-03    9.20177e-03    9.19250e-03    1.47106e-01    3.67766e-02    3.67766e-02    3.67766e-02    3.67766e-02    9.19414e-03    9.19414e-03    9.19414e-03    9.19414e-03
    4.40000e+01    0.00000e+00   -1.44655e-04   -9.43117e-17    3.31083e-01    2.90804e-04    1.47148e-01    3.67685e-02    3.67911e-02    3.68005e-02    3.67911e-02    9.19313e-03    9.20118e-03    9.20118e-03    9.19313e-03    1.47106e-01    3.67766e-02    3.67766e-02    3.67766e-02    3.67766e-02    9.19414e-03    9.19414e-03    9.19414e-03    9.19414e-03
    4.50000e+01    0.00000e+00   -1.21824e-04   -6.81138e-17    3.31084e-01    2.91066e-04    1.47148e-01    3.67711e-02    3.67913e-02    3.67980e-02    3.67913e-02    9.19379e-03    9.20056e-03    9.20056e-03    9.19379e-03    1.47106e-01    3.67766e-02    3.67766e-02    3.67766e-02    3.67766e-02    9.19414e-03    9.19414e-03    9.19414e-03    9.19414e-03
    4.60000e+01    0.00000e+00   -9.83125e-05   -9.95507e-17    3.31085e-01    2.91281e-04    1.47149e-01    3.67737e-02    3.67914e-02    3.67955e-02    3.67914e-02    9.19445e-03    9.19992e-03    9.19992e-03    9.19445e-03    1.47106e-01    3.67766e-02    3.67766e-02    3.67766e-02    3.67766e-02    9.19414e-03    9.19414e-03    9.19414e-03    9.19414e-03
    4.70000e+01    0.00000e+00   -7.42399e-05   -5.76345e-17    3.31086e-01    2.91450e-04    1.47149e-01    3.67764e-02    3.67915e-02    3.67928e-02    3.67915e-02    9.19513e-03    9.19927e-03    9.19927e-03    9.19513e-03    1.47106e-01    3.67766e-02    3.67766e-02    3.67766e-02    3.67766e-02    9.19414e-03    9.19414e-03    9.19414e-03    9.19414e-03
    4.80000e+01    0.00000e+00   -4.97369e-05   -5.76344e-17    3.31086e-01    2.91571e-04    1.47149e-01    3.67791e-02    3.67916e-02    3.67901e-02    3.67916e-02    9.19583e-03    9.19859e-03    9.19859e-03    9.19583e-03    1.47106e-01    3.67766e-02    3.67766e-02    3.67766e-02    3.67766e-02    9.19414e-03    9.19414e-03    9.19414e-03    9.19414e-03
    4.90000e+01    0.00000e+00   -2.49421e-05    0.00000e+00    3.31086e-01    2.91643e-04    1.47149e-01    3.67819e-02    3.67916e-02    3.67874e-02    3.67916e-02    9.19652e-03    9.19791e-03    9.19791e-03    9.19652e-03    1.47106e-01    3.67766e-02    3.67766e-02    3.67766e-02    3.67766e-02    9.19414e-03    9.19414e-03    9.19414e-03    9.19414e-03
    5.00000e+01    0.00000e+00   -6.81134e-17    1.04790e-17    3.31086e-01    2.91667e-04    1.47149e-01    3.67846e-02    3.67916e-02    3.67846e-02    3.67916e-02    9.19722e-03    9.19722e-03    9.19722e-03    9.19722e-03    1.47106e-01    3.67766e-02    3.67766e-02    3.67766e-02    3.67766e-02    9.19414e-03    9.19414e-03    9.19414e-03    9.19414e-03
    5.10000e+01    0.00000e+00    2.49421e-05    0.00000e+00    3.31086e-01    2.91643e-04    1.47149e-01    3.67874e-02    3.67916e-02    3.67819e-02    3.67916e-02    9.19791e-03    9.19652e-03    9.19652e-03    9.19791e-03    1.47106e-01    3.67766e-02    3.67766e-02    3.67766e-02    3.67766e-02    9.19414e-03    9.19414e-03    9.19414e-03    9.19414e-03
    5.20000e+01    0.00000e+00    4.97369e-05   -2.09580e-17    3.31086e-01    2.91571e-04    1.47149e-01    3.67901e-02    3.67916e-02    3.67791e-02    3.67916e-02    9.19859e-03    9.19583e-03    9.19583e-03    9.19859e-03    1.47106e-01    3.67766e-02    3.67766e-02    3.67766e-02    3.67766e-02    9.19414e-03    9.19414e-03    9.19414e-03    9.19414e-03
    5.30000e+01    0.00000e+00    7.42399e-05   -1.57185e-17    3.31086e-01    2.91450e-04    1.47149e-01    3.67928e-02    3.67915e-02    3.67764e-02    3.67915e-02    9.19927e-03    9.19513e-03    9.19513e-03    9.19927e-03    1.47106e-01    3.67766e-02    3.67766e-02    3.67766e-02    3.67766e-02    9.19414e-03    9.19414e-03    9.19414e-03    9.19414e-03
    5.40000e+01    0.00000e+00    9.83125e-05   -9.43112e-17    3.31085e-01    2.91281e-04    1.47149e-01    3.67955e-02    3.67914e-02    3.67737e-02    3.67914e-02    9.19992e-03    9.19445e-03    9.19445e-03    9.19992e-03    1.47106e-01    3.67766e-02    3.67766e-02    3.67766e-02    3.67766e-02    9.19414e-03    9.19414e-03    9.19414e-03    9.19414e-03
    5.50000e+01    0.00000e+00    1.21824e-04   -6.28743e-17    3.31084e-01    2.91066e-04    1.47148e-01    3.67980e-02    3.67913e-02    3.67711e-02    3.67913e-02    9.20056e-03    9.19379e-03    9.19379e-03    9.20056e-03    1.47106e-01    3.67766e-02    3.67766e-02    3.67766e-02    3.67766e-02    9.19414e-03    9.19414e-03    9.19414e-03    9.19414e-03
    5.60000e+01    0.00000e+00    1.44655e-04   -5.23954e-17    3.31083e-01    2.90804e-04    1.47148e-01    3.68005e-02    3.67911e-02    3.67685e-02    3.67911e-02    9.20118e-03    9.19313e-03    9.19313e-03    9.20118e-03    1.47106e-01    3.67766e-02    3.67766e-02    3.67766e-02    3.67766e-02    9.19414e-03    9.19414e-03    9.19414e-03    9.19414e-03
    5.70000e+01    0.00000e+00    1.66695e-04   -4.71560e-17    3.31082e-01    2.90496e-04    1.47148e-01    3.68030e-02    3.67909e-02    3.67660e-02    3.67909e-02    9.20177e-03    9.19250e-03    9.19250e-03    9.20177e-03    1.47106e-01    3.67766e-02    3.67766e-02    3.67766e-02    3.67766e-02    9.19414e-03    9.19414e-03    9.19414e-03    9.19414e-03
    5.80000e+01    0.00000e+00    1.87847e-04    5.23958e-18    3.31081e-01    2.90144e-04    1.47147e-01    3.68053e-02    3.67907e-02    3.67637e-02    3.67907e-02    9.20233e-03    9.19189e-03    9.19189e-03    9.20233e-03    1.47106e-01    3.67766e-02    3.67766e-02    3.67766e-02    3.67766e-02    9.19414e-03    9.19414e-03    9.19414e-03    9.19414e-03
    5.90000e+01    0.00000e+00    2.08025e-04    2.61980e-17    3.31079e-01    2.89748e-04    1.47146e-01    3.68074e-02    3.67905e-02    3.67614e-02    3.67905e-02    9.20287e-03    9.19130e-03    9.19130e-03    9.20287e-03    1.47106e-01    3.67766e-02    3.67766e-02    3.67766e-02    3.67766e-02    9.19414e-03    9.19414e-03    9.19414e-03    9.19414e-03
    6.00000e+01    0.00000e+00    2.27155e-04   -5.23963e-18    3.31078e-01    2.89310e-04    1.47146e-01    3.68095e-02    3.67903e-02    3.67592e-02    3.67903e-02    9.20337e-03    9.19074e-03    9.19074e-03    9.20337e-03    1.47106e-01    3.67766e-02    3.67766e-02    3.67766e-02    3.67766e-02    9.19414e-03    9.19414e-03    9.19414e-03    9.19414e-03
    6.10000e+01    0.00000e+00    2.45174e-04   -5.23966e-18    3.31076e-01    2.88832e-04    1.47145e-01    3.68114e-02    3.67900e-02    3.67571e-02    3.67900e-02    9.20384e-03    9.19020e-03    9.19020e-03    9.20384e-03    1.47106e-01    3.67766e-02    3.67766e-02    3.67766e-02    3.67766e-02    9.19414e-03    9.19414e-03    9.19414e-03    9.19414e-03
    6.20000e+01    0.00000e+00    2.62028e-04   -2.61984e-17    3.31074e-01    2.88314e-04    1.47144e-01    3.68132e-02    3.67897e-02    3.67552e-02    3.67897e-02    9.20427e-03    9.18970e-03    9.18970e-03    9.20427e-03    1.47106e-01    3.67766e-02    3.67766e-02    3.67766e-02    3.67766e-02    9.19414e-03    9.19414e-03    9.19414e-03    9.19414e-03
    6.30000e+01    0.00000e+00    2.77673e-04   -1.04794e-17    3.31072e-01    2.87759e-04    1.47143e-01    3.68149e-02    3.67894e-02    3.67533e-02    3.67894e-02    9.20466e-03    9.18923e-03    9.18923e-03    9.20466e-03    1.47106e-01    3.67766e-02    3.67766e-02    3.67766e-02    3.67766e-02    9.19414e-03    9.19414e-03    9.19414e-03    9.19414e-03
    6.40000e+01    0.00000e+00    2.92071e-04   -2.09590e-17    3.31070e-01    2.87169e-04    1.47142e-01    3.68164e-02    3.67891e-02    3.67516e-02    3.67891e-02    9.20502e-03    9.18879e-03    9.18879e-03    9.20502e-03    1.47106e-01    3.67766e-02    3.67766e-02    3.67766e-02    3.67766e-02    9.19414e-03    9.19414e-03    9.19414e-03    9.19414e-03
    6.50000e+01    0.00000e+00    3.05193e-04   -5.23979e-18    3.31067e-01    2.86545e-04    1.47141e-01    3.68177e-02    3.67888e-02    3.67501e-02    3.67888e-02    9.20534e-03    9.18838e-03    9.18838e-03    9.20534e-03    1.47106e-01    3.67766e-02    3.67766e-02    3.67766e-02    3.67766e-02    9.19414e-03    9.19414e-03    9.19414e-03    9.19414e-03
    6.60000e+01    0.00000e+00    3.17015e-04   -1.57195e-17    3.31065e-01    2.85889e-04    1.47140e-01    3.68189e-02    3.67885e-02    3.67486e-02    3.67885e-02    9.20562e-03    9.18800e-03    9.18800e-03    9.20562e-03    1.47106e-01    3.67766e-02    3.67766e-02    3.67766e-02    3.67766e-02    9.19414e-03    9.19414e-03    9.19414e-03    9.19414e-03
    6.70000e+01    0.00000e+00    3.27518e-04   -1.57196e-17    3.31062e-01    2.85205e-04    1.47139e-01    3.68199e-02    3.67881e-02    3.67473e-02    3.67881e-02    9.20586e-03    9.18767e-03    9.18767e-03    9.20586e-03    1.47106e-01    3.67766e-02    3.67766e-02    3.67766e-02    3.67766e-02    9.19414e-03    9.19414e-03    9.19414e-03    9.19414e-03
    6.80000e+01    0.00000e+00    3.36686e-04   -6.28790e-17    3.31059e-01    2.84493e-04    1.47138e-01    3.68208e-02    3.67878e-02    3.67461e-02    3.67878e-02    9.20607e-03    9.18736e-03    9.18736e-03    9.20607e-03    1.47106e-01    3.67766e-02    3.67766e-02    3.67766e-02    3.67766e-02    9.19414e-03    9.19414e-03    9.19414e-03    9.19414e-03
    6.90000e+01    0.00000e+00    3.44508e-04   -7.85994e-17    3.31057e-01    2.83758e-04    1.47136e-01    3.68215e-02    3.67874e-02    3.67451e-02    3.67874e-02    9.20623e-03    9.18709e-03    9.18709e-03    9.20623e-03    1.47106e-01    3.67766e-02    3.67766e-02    3.67766e-02    3.67766e-02    9.19414e-03    9.19414e-03    9.19414e-03    9.19414e-03
    7.00000e+01    0.00000e+00    3.50975e-04   -6.28800e-17    3.31054e-01    2.83002e-04    1.47135e-01    3.68221e-02    3.67871e-02    3.67442e-02    3.67871e-02    9.20636e-03    9.18686e-03    9.18686e-03    9.20636e-03    1.47106e-01    3.67766e-02    3.67766e-02    3.67766e-02    3.67766e-02    9.19414e-03    9.19414e-03    9.19414e-03    9.19414e-03
    7.10000e+01    0.00000e+00    3.56082e-04   -1.57201e-17    3.31051e-01    2.82228e-04    1.47134e-01    3.68224e-02    3.67867e-02    3.67435e-02    3.67867e-02    9.20645e-03    9.18666e-03    9.18666e-03    9.20645e-03    1.47106e-01    3.67766e-02    3.67766e-02    3.67766e-02    3.67766e-02    9.19414e-03    9.19414e-03    9.19414e-03    9.19414e-03
    7.20000e+01    0.00000e+00    3.59826e-04    2.09604e-17    3.31048e-01    2.81438e-04    1.47132e-01    3.68227e-02    3.67863e-02    3.67429e-02    3.67863e-02    9.20649e-03    9.18650e-03    9.18650e-03    9.20649e-03    1.47106e-01    3.67766e-02    3.67766e-02    3.67766e-02    3.67766e-02    9.19414e-03    9.19414e-03    9.19414e-03    9.19414e-03
    7.30000e+01    0.00000e+00    3.62204e-04   -1.04803e-17    3.31045e-01    2.80635e-04    1.47131e-01    3.68228e-02    3.67859e-02    3.67424e-02    3.67859e-02    9.20650e-03    9.18638e-03    9.18638e-03    9.20650e-03    1.47106e-01    3.67766e-02    3.67766e-02    3.67766e-02    3.67766e-02    9.19414e-03    9.19414e-03    9.19414e-03    9.19414e-03
    7.40000e+01    0.00000e+00    3.63220e-04   -2.62010e-17    3.31042e-01    2.79824e-04    1.47130e-01    3.68227e-02    3.67855e-02    3.67421e-02    3.67855e-02    9.20647e-03    9.18630e-03    9.18630e-03    9.20647e-03    1.47106e-01    3.67766e-02    3.67766e-02    3.67766e-02    3.67766e-02    9.19414e-03    9.19414e-03    9.19414e-03    9.19414e-03
    7.50000e+01    0.00000e+00    3.62878e-04   -4.19219e-17    3.31039e-01    2.79007e-04    1.47128e-01    3.68225e-02    3.67852e-02    3.67420e-02    3.67852e-02    9.20640e-03    9.18625e-03    9.18625e-03    9.20640e-03    1.47106e-01    3.67766e-02    3.67766e-02    3.67766e-02    3.67766e-02    9.19414e-03    9.19414e-03    9.19414e-03    9.19414e-03
    7.60000e+01    0.00000e+00    3.61185e-04   -4.71626e-17    3.31036e-01    2.78187e-04    1.47127e-01    3.68221e-02    3.67848e-02    3.67420e-02    3.67848e-02    9.20630e-03    9.18624e-03    9.18624e-03    9.20630e-03    1.47106e-01    3.67766e-02    3.67766e-02    3.67766e-02    3.67766e-02    9.19414e-03    9.19414e-03    9.19414e-03    9.19414e-03
    7.70000e+01    0.00000e+00    3.58150e-04   -3.66824e-17    3.31033e-01    2.77368e-04    1.47126e-01    3.68216e-02    3.67844e-02    3.67421e-02    3.67844e-02    9.20616e-03    9.18626e-03    9.18626e-03    9.20616e-03    1.47106e-01    3.67766e-02    3.67766e-02    3.67766e-02    3.67766e-02    9.19414e-03    9.19414e-03    9.19414e-03    9.19414e-03
    7.80000e+01    0.00000e+00    3.53789e-04   -3.66827e-17    3.31030e-01    2.76553e-04    1.47124e-01    3.68209e-02    3.67840e-02    3.67424e-02    3.67840e-02    9.20598e-03    9.18632e-03    9.18632e-03    9.20598e-03    1.47106e-01    3.67766e-02    3.67766e-02    3.67766e-02    3.67766e-02    9.19414e-03    9.19414e-03    9.19414e-03    9.19414e-03
    7.90000e+01    0.00000e+00    3.48118e-04   -1.57213e-17    3.31027e-01    2.75746e-04    1.47123e-01    3.68201e-02    3.67837e-02    3.67428e-02    3.67837e-02    9.20576e-03    9.18642e-03    9.18642e-03    9.20576e-03    1.47106e-01    3.67766e-02    3.67766e-02    3.67766e-02    3.67766e-02    9.19414e-03    9.19414e-03    9.19414e-03    9.19414e-03
    8.00000e+01    0.00000e+00    3.41158e-04   -1.04810e-17    3.31024e-01    2.74949e-04    1.47122e-01    3.68191e-02    3.67833e-02    3.67434e-02    3.67833e-02    9.20551e-03    9.18656e-03    9.18656e-03    9.20551e-03    1.47106e-01    3.67766e-02    3.67766e-02    3.67766e-02    3.67766e-02    9.19414e-03    9.19414e-03    9.19414e-03    9.19414e-03
    8.10000e+01    0.00000e+00    3.32935e-04   -1.57216e-17    3.31021e-01    2.74167e-04    1.47120e-01    3.68180e-02    3.67829e-02    3.67442e-02    3.67829e-02    9.20523e-03    9.18673e-03    9.18673e-03    9.20523e-03    1.47106e-01    3.67766e-02    3.67766e-02    3.67766e-02    3.67766e-02    9.19414e-03    9.19414e-03    9.19414e-03    9.19414e-03