TITLE="LBM output"
VARIABLES = "X", "Y", "Ux","Uy","density","pressure","f0","f1","f2","f3","f4","f5","f6","f7","f8","feq0","feq1","feq2","feq3","feq4","feq5","feq6","feq7","feq8",
ZONE T = "fluid", I=101, J=101, F=POINT
    0.00000e+00    0.00000e+00   -3.67129e-17   -7.86704e-17    3.30758e-01    2.04180e-04    1.47003e-01    3.67573e-02    3.67573e-02    3.67573e-02    3.67573e-02    9.19094e-03    9.19094e-03    9.19094e-03    9.19094e-03    1.47003e-01    3.67509e-02    3.67509e-02    3.67509e-02    3.67509e-02    9.18771e-03    9.18771e-03    9.18771e-03    9.18771e-03
    1.00000e+00    0.00000e+00   -5.83861e-05   -7.86704e-17    3.30758e-01    2.04220e-04    1.47003e-01    3.67509e-02    3.67573e-02    3.67638e-02    3.67573e-02    9.18933e-03    9.19255e-03    9.19255e-03    9.18933e-03    1.47003e-01    3.67509e-02    3.67509e-02    3.67509e-02    3.67509e-02    9.18771e-03    9.18771e-03    9.18771e-03    9.18771e-03
    2.00000e+00    0.00000e+00   -1.16546e-04   -1.57341e-17    3.30758e-01    2.04333e-04    1.47004e-01    3.67444e-02    3.67574e-02    3.67702e-02    3.67574e-02    9.18772e-03    9.19417e-03    9.19417e-03    9.18772e-03    1.47003e-01    3.67509e-02    3.67509e-02    3.67509e-02    3.67509e-02    9.18771e-03    9.18771e-03    9.18771e-03    9.18771e-03
    3.00000e+00    0.00000e+00   -1.74245e-04    2.09787e-17    3.30759e-01    2.04518e-04    1.47004e-01    3.67381e-02    3.67575e-02    3.67766e-02    3.67575e-02    9.18613e-03    9.19577e-03    9.19577e-03    9.18613e-03    1.47003e-01    3.67509e-02    3.67509e-02    3.67509e-02    3.67509e-02    9.18771e-03    9.18771e-03    9.18771e-03    9.18771e-03
    4.00000e+00    0.00000e+00   -2.31256e-04   -5.24466e-18    3.30760e-01    2.04776e-04    1.47004e-01    3.67318e-02    3.67576e-02    3.67829e-02    3.67576e-02    9.18456e-03    9.19735e-03    9.19735e-03    9.18456e-03    1.47003e-01    3.67509e-02    3.67509e-02    3.67509e-02    3.67509e-02    9.18771e-03    9.18771e-03    9.18771e-03    9.18771e-03
    5.00000e+00    0.00000e+00   -2.87352e-04   -5.24464e-18    3.30761e-01    2.05104e-04    1.47005e-01    3.67256e-02    3.67577e-02    3.67891e-02    3.67577e-02    9.18302e-03    9.19891e-03    9.19891e-03    9.18302e-03    1.47003e-01    3.67509e-02    3.67509e-02    3.67509e-02    3.67509e-02    9.18771e-03    9.18771e-03    9.18771e-03    9.18771e-03
    6.00000e+00    0.00000e+00   -3.42312e-04    3.14677e-17    3.30763e-01    2.05502e-04    1.47006e-01    3.67196e-02    3.67579e-02    3.67952e-02    3.67579e-02    9.18152e-03    9.20044e-03    9.20044e-03    9.18152e-03    1.47003e-01    3.67509e-02    3.67509e-02    3.67509e-02    3.67509e-02    9.18771e-03    9.18771e-03    9.18771e-03    9.18771e-03
    7.00000e+00    0.00000e+00   -3.95919e-04    1.04892e-17    3.30764e-01    2.05967e-04    1.47006e-01    3.67137e-02    3.67581e-02    3.68012e-02    3.67581e-02    9.18005e-03    9.20194e-03    9.20194e-03    9.18005e-03    1.47003e-01    3.67509e-02    3.67509e-02    3.67509e-02    3.67509e-02    9.18771e-03    9.18771e-03    9.18771e-03    9.18771e-03
    8.00000e+00    0.00000e+00   -4.47960e-04    0.00000e+00    3.30766e-01    2.06497e-04    1.47007e-01    3.67080e-02    3.67584e-02    3.68070e-02    3.67584e-02    9.17863e-03    9.20340e-03    9.20340e-03    9.17863e-03    1.47003e-01    3.67509e-02    3.67509e-02    3.67509e-02    3.67509e-02    9.18771e-03    9.18771e-03    9.18771e-03    9.18771e-03
    9.00000e+00    0.00000e+00   -4.98228e-04   -2.09781e-17    3.30769e-01    2.07088e-04    1.47008e-01    3.67025e-02    3.67586e-02    3.68126e-02    3.67586e-02    9.17726e-03    9.20480e-03    9.20480e-03    9.17726e-03    1.47003e-01    3.67509e-02    3.67509e-02    3.67509e-02    3.67509e-02    9.18771e-03    9.18771e-03    9.18771e-03    9.18771e-03
    1.00000e+01    0.00000e+00   -5.46524e-04   -5.76893e-17    3.30771e-01    2.07738e-04    1.47009e-01    3.66972e-02    3.67589e-02    3.68180e-02    3.67589e-02    9.17594e-03    9.20616e-03    9.20616e-03    9.17594e-03    1.47003e-01    3.67509e-02    3.67509e-02    3.67509e-02    3.67509e-02    9.18771e-03    9.18771e-03    9.18771e-03    9.18771e-03
    1.10000e+01    0.00000e+00   -5.92656e-04   -1.57333e-17    3.30774e-01    2.08443e-04    1.47010e-01    3.66922e-02    3.67593e-02    3.68231e-02    3.67593e-02    9.17469e-03    9.20745e-03    9.20745e-03    9.17469e-03    1.47003e-01    3.67509e-02    3.67509e-02    3.67509e-02    3.67509e-02    9.18771e-03    9.18771e-03    9.18771e-03    9.18771e-03
    1.20000e+01    0.00000e+00   -6.36442e-04   -2.62220e-17    3.30777e-01    2.09200e-04    1.47012e-01    3.66874e-02    3.67596e-02    3.68280e-02    3.67596e-02    9.17350e-03    9.20869e-03    9.20869e-03    9.17350e-03    1.47003e-01    3.67509e-02    3.67509e-02    3.67509e-02    3.67509e-02    9.18771e-03    9.18771e-03    9.18771e-03    9.18771e-03
    1.30000e+01    0.00000e+00   -6.77707e-04   -1.04887e-16    3.30780e-01    2.10005e-04    1.47013e-01    3.66829e-02    3.67600e-02    3.68326e-02    3.67600e-02    9.17239e-03    9.20985e-03    9.20985e-03    9.17239e-03    1.47003e-01    3.67509e-02    3.67509e-02    3.67509e-02    3.67509e-02    9.18771e-03    9.18771e-03    9.18771e-03    9.18771e-03
    1.40000e+01    0.00000e+00   -7.16288e-04   -8.91531e-17    3.30783e-01    2.10853e-04    1.47014e-01    3.66787e-02    3.67604e-02    3.68369e-02    3.67604e-02    9.17134e-03    9.21094e-03    9.21094e-03    9.17134e-03    1.47003e-01    3.67509e-02    3.67509e-02    3.67509e-02    3.67509e-02    9.18771e-03    9.18771e-03    9.18771e-03    9.18771e-03
    1.50000e+01    0.00000e+00   -7.52032e-04   -3.67097e-17    3.30786e-01    2.11742e-04    1.47016e-01    3.66748e-02    3.67608e-02    3.68409e-02    3.67608e-02    9.17038e-03    9.21196e-03    9.21196e-03    9.17038e-03    1.47003e-01    3.67509e-02    3.67509e-02    3.67509e-02    3.67509e-02    9.18771e-03    9.18771e-03    9.18771e-03    9.18771e-03
    1.60000e+01    0.00000e+00   -7.84799e-04   -6.29303e-17    3.30790e-01    2.12666e-04    1.47017e-01    3.66712e-02    3.67612e-02    3.68446e-02    3.67612e-02    9.16950e-03    9.21289e-03    9.21289e-03    9.16950e-03    1.47003e-01    3.67509e-02    3.67509e-02    3.67509e-02    3.67509e-02    9.18771e-03    9.18771e-03    9.18771e-03    9.18771e-03
    1.70000e+01    0.00000e+00   -8.14459e-04   -5.76855e-17    3.30793e-01    2.13621e-04    1.47019e-01    3.66680e-02    3.67617e-02    3.68479e-02    3.67617e-02    9.16871e-03    9.21374e-03    9.21374e-03    9.16871e-03    1.47003e-01    3.67509e-02    3.67509e-02    3.67509e-02    3.67509e-02    9.18771e-03    9.18771e-03    9.18771e-03    9.18771e-03
    1.80000e+01    0.00000e+00   -8.40896e-04   -8.91492e-17    3.30797e-01    2.14604e-04    1.47021e-01    3.66652e-02    3.67621e-02    3.68509e-02    3.67621e-02    9.16801e-03    9.21449e-03    9.21449e-03    9.16801e-03    1.47003e-01    3.67509e-02    3.67509e-02    3.67509e-02    3.67509e-02    9.18771e-03    9.18771e-03    9.18771e-03    9.18771e-03
    1.90000e+01    0.00000e+00   -8.64008e-04   -5.24401e-17    3.30801e-01    2.15610e-04    1.47022e-01    3.66627e-02    3.67626e-02    3.68535e-02    3.67626e-02    9.16739e-03    9.21516e-03    9.21516e-03    9.16739e-03    1.47003e-01    3.67509e-02    3.67509e-02    3.67509e-02    3.67509e-02    9.18771e-03    9.18771e-03    9.18771e-03    9.18771e-03
    2.00000e+01    0.00000e+00   -8.83706e-04   -3.14637e-17    3.30805e-01    2.16634e-04    1.47024e-01    3.66605e-02    3.67631e-02    3.68557e-02    3.67631e-02    9.16688e-03    9.21573e-03    9.21573e-03    9.16688e-03    1.47003e-01    3.67509e-02    3.67509e-02    3.67509e-02    3.67509e-02    9.18771e-03    9.18771e-03    9.18771e-03    9.18771e-03
    2.10000e+01    0.00000e+00   -8.99916e-04   -4.19511e-17    3.30809e-01    2.17673e-04    1.47026e-01    3.66588e-02    3.67636e-02    3.68576e-02    3.67636e-02    9.16646e-03    9.21621e-03    9.21621e-03    9.16646e-03    1.47003e-01    3.67509e-02    3.67509e-02    3.67509e-02    3.67509e-02    9.18771e-03    9.18771e-03    9.18771e-03    9.18771e-03
    2.20000e+01    0.00000e+00   -9.12577e-04    1.04877e-17    3.30812e-01    2.18722e-04    1.47028e-01    3.66574e-02    3.67641e-02    3.68590e-02    3.67641e-02    9.16613e-03    9.21659e-03    9.21659e-03    9.16613e-03    1.47003e-01    3.67509e-02    3.67509e-02    3.67509e-02    3.67509e-02    9.18771e-03    9.18771e-03    9.18771e-03    9.18771e-03
    2.30000e+01    0.00000e+00   -9.21645e-04    3.14626e-17    3.30816e-01    2.19776e-04    1.47029e-01    3.66565e-02    3.67646e-02    3.68601e-02    3.67646e-02    9.16591e-03    9.21686e-03    9.21686e-03    9.16591e-03    1.47003e-01    3.67509e-02    3.67509e-02    3.67509e-02    3.67509e-02    9.18771e-03    9.18771e-03    9.18771e-03    9.18771e-03
    2.40000e+01    0.00000e+00   -9.27086e-04   -2.62185e-17    3.30820e-01    2.20833e-04    1.47031e-01    3.66559e-02    3.67651e-02    3.68607e-02    3.67651e-02    9.16579e-03    9.21704e-03    9.21704e-03    9.16579e-03    1.47003e-01    3.67509e-02    3.67509e-02    3.67509e-02    3.67509e-02    9.18771e-03    9.18771e-03    9.18771e-03    9.18771e-03
    2.50000e+01    0.00000e+00   -9.28886e-04   -4.71927e-17    3.30824e-01    2.21888e-04    1.47033e-01    3.66558e-02    3.67656e-02    3.68609e-02    3.67656e-02    9.16576e-03    9.21712e-03    9.21712e-03    9.16576e-03    1.47003e-01    3.67509e-02    3.67509e-02    3.67509e-02    3.67509e-02    9.18771e-03    9.18771e-03    9.18771e-03    9.18771e-03
    2.60000e+01    0.00000e+00   -9.27043e-04   -1.25846e-16    3.30828e-01    2.22936e-04    1.47035e-01    3.66560e-02    3.67661e-02    3.68608e-02    3.67661e-02    9.16584e-03    9.21709e-03    9.21709e-03    9.16584e-03    1.47003e-01    3.67509e-02    3.67509e-02    3.67509e-02    3.67509e-02    9.18771e-03    9.18771e-03    9.18771e-03    9.18771e-03
    2.70000e+01    0.00000e+00   -9.21567e-04   -1.46818e-16    3.30832e-01    2.23975e-04    1.47036e-01    3.66567e-02    3.67666e-02    3.68602e-02    3.67666e-02    9.16601e-03    9.21697e-03    9.21697e-03    9.16601e-03    1.47003e-01    3.67509e-02    3.67509e-02    3.67509e-02    3.67509e-02    9.18771e-03    9.18771e-03    9.18771e-03    9.18771e-03
    2.80000e+01    0.00000e+00   -9.12486e-04   -1.46817e-16    3.30836e-01    2.25000e-04    1.47038e-01    3.66577e-02    3.67671e-02    3.68592e-02    3.67671e-02    9.16629e-03    9.21674e-03    9.21674e-03    9.16629e-03    1.47003e-01    3.67509e-02    3.67509e-02    3.67509e-02    3.67509e-02    9.18771e-03    9.18771e-03    9.18771e-03    9.18771e-03
    2.90000e+01    0.00000e+00   -8.99837e-04   -9.96245e-17    3.30840e-01    2.26009e-04    1.47040e-01    3.66591e-02    3.67676e-02    3.68579e-02    3.67676e-02    9.16666e-03    9.21642e-03    9.21642e-03    9.16666e-03    1.47003e-01    3.67509e-02    3.67509e-02    3.67509e-02    3.67509e-02    9.18771e-03    9.18771e-03    9.18771e-03    9.18771e-03
    3.00000e+01    0.00000e+00   -8.83673e-04   -8.91367e-17    3.30844e-01    2.26997e-04    1.47041e-01    3.66609e-02    3.67681e-02    3.68561e-02    3.67681e-02    9.16713e-03    9.21599e-03    9.21599e-03    9.16713e-03    1.47003e-01    3.67509e-02    3.67509e-02    3.67509e-02    3.67509e-02    9.18771e-03    9.18771e-03    9.18771e-03    9.18771e-03
    3.10000e+01    0.00000e+00   -8.64059e-04   -7.34059e-17    3.30847e-01    2.27961e-04    1.47043e-01    3.66631e-02    3.67686e-02    3.68540e-02    3.67686e-02    9.16770e-03    9.21547e-03    9.21547e-03    9.16770e-03    1.47003e-01    3.67509e-02    3.67509e-02    3.67509e-02    3.67509e-02    9.18771e-03    9.18771e-03    9.18771e-03    9.18771e-03
    3.20000e+01    0.00000e+00   -8.41069e-04   -4.19458e-17    3.30851e-01    2.28897e-04    1.47045e-01    3.66657e-02    3.67690e-02    3.68514e-02    3.67690e-02    9.16835e-03    9.21486e-03    9.21486e-03    9.16835e-03    1.47003e-01    3.67509e-02    3.67509e-02    3.67509e-02    3.67509e-02    9.18771e-03    9.18771e-03    9.18771e-03    9.18771e-03
    3.30000e+01    0.00000e+00   -8.14792e-04    0.00000e+00    3.30854e-01    2.29804e-04    1.47046e-01    3.66686e-02    3.67695e-02    3.68485e-02    3.67695e-02    9.16910e-03    9.21416e-03    9.21416e-03    9.16910e-03    1.47003e-01    3.67509e-02    3.67509e-02    3.67509e-02    3.67509e-02    9.18771e-03    9.18771e-03    9.18771e-03    9.18771e-03
    3.40000e+01    0.00000e+00   -7.85326e-04   -3.67018e-17    3.30857e-01    2.30677e-04    1.47048e-01    3.66719e-02    3.67699e-02    3.68453e-02    3.67699e-02    9.16994e-03    9.21336e-03    9.21336e-03    9.16994e-03    1.47003e-01    3.67509e-02    3.67509e-02    3.67509e-02    3.67509e-02    9.18771e-03    9.18771e-03    9.18771e-03    9.18771e-03
    3.50000e+01    0.00000e+00   -7.52779e-04   -1.15347e-16    3.30861e-01    2.31515e-04    1.47049e-01    3.66755e-02    3.67703e-02    3.68417e-02    3.67703e-02    9.17085e-03    9.21248e-03    9.21248e-03    9.17085e-03    1.47003e-01    3.67509e-02    3.67509e-02    3.67509e-02    3.67509e-02    9.18771e-03    9.18771e-03    9.18771e-03    9.18771e-03
    3.60000e+01    0.00000e+00   -7.17272e-04   -1.20589e-16    3.30864e-01    2.32313e-04    1.47050e-01    3.66794e-02    3.67707e-02    3.68378e-02    3.67707e-02    9.17185e-03    9.21152e-03    9.21152e-03    9.17185e-03    1.47003e-01    3.67509e-02    3.67509e-02    3.67509e-02    3.67509e-02    9.18771e-03    9.18771e-03    9.18771e-03    9.18771e-03
    3.70000e+01    0.00000e+00   -6.78934e-04   -1.10102e-16    3.30866e-01    2.33069e-04    1.47052e-01    3.66836e-02    3.67711e-02    3.68336e-02    3.67711e-02    9.17293e-03    9.21048e-03    9.21048e-03    9.17293e-03    1.47003e-01    3.67509e-02    3.67509e-02    3.67509e-02    3.67509e-02    9.18771e-03    9.18771e-03    9.18771e-03    9.18771e-03
    3.80000e+01    0.00000e+00   -6.37904e-04   -1.57288e-16    3.30869e-01    2.33781e-04    1.47053e-01    3.66882e-02    3.67715e-02    3.68290e-02    3.67715e-02    9.17408e-03    9.20936e-03    9.20936e-03    9.17408e-03    1.47003e-01    3.67509e-02    3.67509e-02    3.67509e-02    3.67509e-02    9.18771e-03    9.18771e-03    9.18771e-03    9.18771e-03
    3.90000e+01    0.00000e+00   -5.94331e-04   -1.20586e-16    3.30872e-01    2.34446e-04    1.47054e-01    3.66930e-02    3.67718e-02    3.68242e-02    3.67718e-02    9.17530e-03    9.20818e-03    9.20818e-03    9.17530e-03    1.47003e-01    3.67509e-02    3.67509e-02    3.67509e-02    3.67509e-02    9.18771e-03    9.18771e-03    9.18771e-03    9.18771e-03
    4.00000e+01    0.00000e+00   -5.48375e-04   -7.33999e-17    3.30874e-01    2.35063e-04    1.47055e-01    3.66981e-02    3.67722e-02    3.68192e-02    3.67722e-02    9.17659e-03    9.20692e-03    9.20692e-03    9.17659e-03    1.47003e-01    3.67509e-02    3.67509e-02    3.67509e-02    3.67509e-02    9.18771e-03    9.18771e-03    9.18771e-03    9.18771e-03
    4.10000e+01    0.00000e+00   -5.00205e-04   -4.19426e-17    3.30876e-01    2.35628e-04    1.47056e-01    3.67034e-02    3.67725e-02    3.68138e-02    3.67725e-02    9.17793e-03    9.20560e-03    9.20560e-03    9.17793e-03    1.47003e-01    3.67509e-02    3.67509e-02    3.67509e-02    3.67509e-02    9.18771e-03    9.18771e-03    9.18771e-03    9.18771e-03
    4.20000e+01    0.00000e+00   -4.50000e-04   -2.62139e-17    3.30878e-01    2.36139e-04    1.47057e-01    3.67089e-02    3.67727e-02    3.68083e-02    3.67727e-02    9.17933e-03    9.20423e-03    9.20423e-03    9.17933e-03    1.47003e-01    3.67509e-02    3.67509e-02    3.67509e-02    3.67509e-02    9.18771e-03    9.18771e-03    9.18771e-03    9.18771e-03
    4.30000e+01    0.00000e+00   -3.97950e-04   -1.04855e-17    3.30880e-01    2.36595e-04    1.47058e-01    3.67147e-02    3.67730e-02    3.68025e-02    3.67730e-02    9.18078e-03    9.20280e-03    9.20280e-03    9.18078e-03    1.47003e-01    3.67509e-02    3.67509e-02    3.67509e-02    3.67509e-02    9.18771e-03    9.18771e-03    9.18771e-03    9.18771e-03
    4.40000e+01    0.00000e+00   -3.44257e-04   -3.14564e-17    3.30881e-01    2.36994e-04    1.47058e-01    3.67206e-02    3.67732e-02    3.67966e-02    3.67732e-02    9.18228e-03    9.20132e-03    9.20132e-03    9.18228e-03    1.47003e-01    3.67509e-02    3.67509e-02    3.67509e-02    3.67509e-02    9.18771e-03    9.18771e-03    9.18771e-03    9.18771e-03
    4.50000e+01    0.00000e+00   -2.89129e-04   -9.96116e-17    3.30882e-01    2.37335e-04    1.47059e-01    3.67267e-02    3.67734e-02    3.67905e-02    3.67734e-02    9.18381e-03    9.19981e-03    9.19981e-03    9.18381e-03    1.47003e-01    3.67509e-02    3.67509e-02    3.67509e-02    3.67509e-02    9.18771e-03    9.18771e-03    9.18771e-03    9.18771e-03
    4.60000e+01    0.00000e+00   -2.32788e-04   -6.29124e-17    3.30884e-01    2.37615e-04    1.47059e-01    3.67329e-02    3.67735e-02    3.67843e-02    3.67735e-02    9.18538e-03    9.19826e-03    9.19826e-03    9.18538e-03    1.47003e-01    3.67509e-02    3.67509e-02    3.67509e-02    3.67509e-02    9.18771e-03    9.18771e-03    9.18771e-03    9.18771e-03
    4.70000e+01    0.00000e+00   -1.75464e-04   -3.14561e-17    3.30884e-01    2.37835e-04    1.47060e-01    3.67392e-02    3.67737e-02    3.67779e-02    3.67737e-02    9.18697e-03    9.19668e-03    9.19668e-03    9.18697e-03    1.47003e-01    3.67509e-02    3.67509e-02    3.67509e-02    3.67509e-02    9.18771e-03    9.18771e-03    9.18771e-03    9.18771e-03
    4.80000e+01    0.00000e+00   -1.17394e-04   -1.57280e-17    3.30885e-01    2.37992e-04    1.47060e-01    3.67456e-02    3.67738e-02    3.67715e-02    3.67738e-02    9.18858e-03    9.19507e-03    9.19507e-03    9.18858e-03    1.47003e-01    3.67509e-02    3.67509e-02    3.67509e-02    3.67509e-02    9.18771e-03    9.18771e-03    9.18771e-03    9.18771e-03
    4.90000e+01    0.00000e+00   -5.88227e-05   -7.86401e-17    3.30885e-01    2.38087e-04    1.47060e-01    3.67521e-02    3.67738e-02    3.67650e-02    3.67738e-02    9.19020e-03    9.19346e-03    9.19346e-03    9.19020e-03    1.47003e-01    3.67509e-02    3.67509e-02    3.67509e-02    3.67509e-02    9.18771e-03    9.18771e-03    9.18771e-03    9.18771e-03
    5.00000e+01    0.00000e+00    5.24267e-18   -5.76694e-17    3.30885e-01    2.38119e-04    1.47060e-01    3.67586e-02    3.67738e-02    3.67586e-02    3.67738e-02    9.19183e-03    9.19183e-03    9.19183e-03    9.19183e-03    1.47003e-01    3.67509e-02    3.67509e-02    3.67509e-02    3.67509e-02    9.18771e-03    9.18771e-03    9.18771e-03    9.18771e-03
    5.10000e+01    0.00000e+00    5.88227e-05    1.04853e-17    3.30885e-01    2.38087e-04    1.47060e-01    3.67650e-02    3.67738e-02    3.67521e-02    3.67738e-02    9.19346e-03    9.19020e-03    9.19020e-03    9.19346e-03    1.47003e-01    3.67509e-02    3.67509e-02    3.67509e-02    3.67509e-02    9.18771e-03    9.18771e-03    9.18771e-03    9.18771e-03
    5.20000e+01    0.00000e+00    1.17394e-04    2.62134e-17    3.30885e-01    2.37992e-04    1.47060e-01    3.67715e-02    3.67738e-02    3.67456e-02    3.67738e-02    9.19507e-03    9.18858e-03    9.18858e-03    9.19507e-03    1.47003e-01    3.67509e-02    3.67509e-02    3.67509e-02    3.67509e-02    9.18771e-03    9.18771e-03    9.18771e-03    9.18771e-03
    5.30000e+01    0.00000e+00    1.75464e-04    1.04854e-16    3.30884e-01    2.37835e-04    1.47060e-01    3.67779e-02    3.67737e-02    3.67392e-02    3.67737e-02    9.19668e-03    9.18697e-03    9.18697e-03    9.19668e-03    1.47003e-01    3.67509e-02    3.67509e-02    3.67509e-02    3.67509e-02    9.18771e-03    9.18771e-03    9.18771e-03    9.18771e-03
    5.40000e+01    0.00000e+00    2.32788e-04    8.91259e-17    3.30884e-01    2.37615e-04    1.47059e-01    3.67843e-02    3.67735e-02    3.67329e-02    3.67735e-02    9.19826e-03    9.18538e-03    9.18538e-03    9.19826e-03    1.47003e-01    3.67509e-02    3.67509e-02    3.67509e-02    3.67509e-02    9.18771e-03    9.18771e-03    9.18771e-03    9.18771e-03
    5.50000e+01    0.00000e+00    2.89129e-04    8.38835e-17    3.30882e-01    2.37335e-04    1.47059e-01    3.67905e-02    3.67734e-02    3.67267e-02    3.67734e-02    9.19981e-03    9.18381e-03    9.18381e-03    9.19981e-03    1.47003e-01    3.67509e-02    3.67509e-02    3.67509e-02    3.67509e-02    9.18771e-03    9.18771e-03    9.18771e-03    9.18771e-03
    5.60000e+01    0.00000e+00    3.44257e-04   -5.24274e-18    3.30881e-01    2.36994e-04    1.47058e-01    3.67966e-02    3.67732e-02    3.67206e-02    3.67732e-02    9.20132e-03    9.18228e-03    9.18228e-03    9.20132e-03    1.47003e-01    3.67509e-02    3.67509e-02    3.67509e-02    3.67509e-02    9.18771e-03    9.18771e-03    9.18771e-03    9.18771e-03
    5.70000e+01    0.00000e+00    3.97950e-04   -3.14566e-17    3.30880e-01    2.36595e-04    1.47058e-01    3.68025e-02    3.67730e-02    3.67147e-02    3.67730e-02    9.20280e-03    9.18078e-03    9.18078e-03    9.20280e-03    1.47003e-01    3.67509e-02    3.67509e-02    3.67509e-02    3.67509e-02    9.18771e-03    9.18771e-03    9.18771e-03    9.18771e-03
    5.80000e+01    0.00000e+00    4.50000e-04   -5.76707e-17    3.30878e-01    2.36139e-04    1.47057e-01    3.68083e-02    3.67727e-02    3.67089e-02    3.67727e-02    9.20423e-03    9.17933e-03    9.17933e-03    9.20423e-03    1.47003e-01    3.67509e-02    3.67509e-02    3.67509e-02    3.67509e-02    9.18771e-03    9.18771e-03    9.18771e-03    9.18771e-03
    5.90000e+01    0.00000e+00    5.00205e-04   -9.43707e-17    3.30876e-01    2.35628e-04    1.47056e-01    3.68138e-02    3.67725e-02    3.67034e-02    3.67725e-02    9.20560e-03    9.17793e-03    9.17793e-03    9.20560e-03    1.47003e-01    3.67509e-02    3.67509e-02    3.67509e-02    3.67509e-02    9.18771e-03    9.18771e-03    9.18771e-03    9.18771e-03
    6.00000e+01    0.00000e+00    5.48375e-04   -8.38856e-17    3.30874e-01    2.35063e-04    1.47055e-01    3.68192e-02    3.67722e-02    3.66981e-02    3.67722e-02    9.20692e-03    9.17659e-03    9.17659e-03    9.20692e-03    1.47003e-01    3.67509e-02    3.67509e-02    3.67509e-02    3.67509e-02    9.18771e-03    9.18771e-03    9.18771e-03    9.18771e-03
    6.10000e+01    0.00000e+00    5.94331e-04   -5.24289e-18    3.30872e-01    2.34446e-04    1.47054e-01    3.68242e-02    3.67718e-02    3.66930e-02    3.67718e-02    9.20818e-03    9.17530e-03    9.17530e-03    9.20818e-03    1.47003e-01    3.67509e-02    3.67509e-02    3.67509e-02    3.67509e-02    9.18771e-03    9.18771e-03    9.18771e-03    9.18771e-03
    6.20000e+01    0.00000e+00    6.37904e-04    0.00000e+00    3.30869e-01    2.33781e-04    1.47053e-01    3.68290e-02    3.67715e-02    3.66882e-02    3.67715e-02    9.20936e-03    9.17408e-03    9.17408e-03    9.20936e-03    1.47003e-01    3.67509e-02    3.67509e-02    3.67509e-02    3.67509e-02    9.18771e-03    9.18771e-03    9.18771e-03    9.18771e-03
    6.30000e+01    0.00000e+00    6.78934e-04   -2.62149e-17    3.30866e-01    2.33069e-04    1.47052e-01    3.68336e-02    3.67711e-02    3.66836e-02    3.67711e-02    9.21048e-03    9.17293e-03    9.17293e-03    9.21048e-03    1.47003e-01    3.67509e-02    3.67509e-02    3.67509e-02    3.67509e-02    9.18771e-03    9.18771e-03    9.18771e-03    9.18771e-03
    6.40000e+01    0.00000e+00    7.17272e-04   -3.14581e-17    3.30864e-01    2.32313e-04    1.47050e-01    3.68378e-02    3.67707e-02    3.66794e-02    3.67707e-02    9.21152e-03    9.17185e-03    9.17185e-03    9.21152e-03    1.47003e-01    3.67509e-02    3.67509e-02    3.67509e-02    3.67509e-02    9.18771e-03    9.18771e-03    9.18771e-03    9.18771e-03
    6.50000e+01    0.00000e+00    7.52779e-04   -2.09723e-17    3.30861e-01    2.31515e-04    1.47049e-01    3.68417e-02    3.67703e-02    3.66755e-02    3.67703e-02    9.21248e-03    9.17085e-03    9.17085e-03    9.21248e-03    1.47003e-01    3.67509e-02    3.67509e-02    3.67509e-02    3.67509e-02    9.18771e-03    9.18771e-03    9.18771e-03    9.18771e-03
    6.60000e+01    0.00000e+00    7.85326e-04    3.14587e-17    3.30857e-01    2.30677e-04    1.47048e-01    3.68453e-02    3.67699e-02    3.66719e-02    3.67699e-02    9.21336e-03    9.16994e-03    9.16994e-03    9.21336e-03    1.47003e-01    3.67509e-02    3.67509e-02    3.67509e-02    3.67509e-02    9.18771e-03    9.18771e-03    9.18771e-03    9.18771e-03
    6.70000e+01    0.00000e+00    8.14792e-04    1.57295e-17    3.30854e-01    2.29804e-04    1.47046e-01    3.68485e-02    3.67695e-02    3.66686e-02    3.67695e-02    9.21416e-03    9.16910e-03    9.16910e-03    9.21416e-03    1.47003e-01    3.67509e-02    3.67509e-02    3.67509e-02    3.67509e-02    9.18771e-03    9.18771e-03    9.18771e-03    9.18771e-03
    6.80000e+01    0.00000e+00    8.41069e-04    2.62161e-17    3.30851e-01    2.28897e-04    1.47045e-01    3.68514e-02    3.67690e-02    3.66657e-02    3.67690e-02    9.21486e-03    9.16835e-03    9.16835e-03    9.21486e-03    1.47003e-01    3.67509e-02    3.67509e-02    3.67509e-02    3.67509e-02    9.18771e-03    9.18771e-03    9.18771e-03    9.18771e-03
    6.90000e+01    0.00000e+00    8.64059e-04   -5.24328e-18    3.30847e-01    2.27961e-04    1.47043e-01    3.68540e-02    3.67686e-02    3.66631e-02    3.67686e-02    9.21547e-03    9.16770e-03    9.16770e-03    9.21547e-03    1.47003e-01    3.67509e-02    3.67509e-02    3.67509e-02    3.67509e-02    9.18771e-03    9.18771e-03    9.18771e-03    9.18771e-03
    7.00000e+01    0.00000e+00    8.83673e-04   -5.24333e-18    3.30844e-01    2.26997e-04    1.47041e-01    3.68561e-02    3.67681e-02    3.66609e-02    3.67681e-02    9.21599e-03    9.16713e-03    9.16713e-03    9.21599e-03    1.47003e-01    3.67509e-02    3.67509e-02    3.67509e-02    3.67509e-02    9.18771e-03    9.18771e-03    9.18771e-03    9.18771e-03
    7.10000e+01    0.00000e+00    8.99837e-04   -4.19471e-17    3.30840e-01    2.26009e-04    1.47040e-01    3.68579e-02    3.67676e-02    3.66591e-02    3.67676e-02    9.21642e-03    9.16666e-03    9.16666e-03    9.21642e-03    1.47003e-01    3.67509e-02    3.67509e-02    3.67509e-02    3.67509e-02    9.18771e-03    9.18771e-03    9.18771e-03    9.18771e-03
    7.20000e+01    0.00000e+00    9.12486e-04   -2.62173e-17    3.30836e-01    2.25000e-04    1.47038e-01    3.68592e-02    3.67671e-02    3.66577e-02    3.67671e-02    9.21674e-03    9.16629e-03    9.16629e-03    9.21674e-03    1.47003e-01    3.67509e-02    3.67509e-02    3.67509e-02    3.67509e-02    9.18771e-03    9.18771e-03    9.18771e-03    9.18771e-03
    7.30000e+01    0.00000e+00    9.21567e-04   -5.24351e-18    3.30832e-01    2.23975e-04    1.47036e-01    3.68602e-02    3.67666e-02    3.66567e-02    3.67666e-02    9.21697e-03    9.16601e-03    9.16601e-03    9.21697e-03    1.47003e-01    3.67509e-02    3.67509e-02    3.67509e-02    3.67509e-02    9.18771e-03    9.18771e-03    9.18771e-03    9.18771e-03
    7.40000e+01    0.00000e+00    9.27043e-04    1.57307e-17    3.30828e-01    2.22936e-04    1.47035e-01    3.68608e-02    3.67661e-02    3.66560e-02    3.67661e-02    9.21709e-03    9.16584e-03    9.16584e-03    9.21709e-03    1.47003e-01    3.67509e-02    3.67509e-02    3.67509e-02    3.67509e-02    9.18771e-03    9.18771e-03    9.18771e-03    9.18771e-03
    7.50000e+01    0.00000e+00    9.28886e-04   -1.57309e-17    3.30824e-01    2.21888e-04    1.47033e-01    3.68609e-02    3.67656e-02    3.66558e-02    3.67656e-02    9.21712e-03    9.16576e-03    9.16576e-03    9.21712e-03    1.47003e-01    3.67509e-02    3.67509e-02    3.67509e-02    3.67509e-02    9.18771e-03    9.18771e-03    9.18771e-03    9.18771e-03
    7.60000e+01    0.00000e+00    9.27086e-04   -5.24370e-18    3.30820e-01    2.20833e-04    1.47031e-01    3.68607e-02    3.67651e-02    3.66559e-02    3.67651e-02    9.21704e-03    9.16579e-03    9.16579e-03    9.21704e-03    1.47003e-01    3.67509e-02    3.67509e-02    3.67509e-02    3.67509e-02    9.18771e-03    9.18771e-03    9.18771e-03    9.18771e-03
    7.70000e+01    0.00000e+00    9.21645e-04   -3.14626e-17    3.30816e-01    2.19776e-04    1.47029e-01    3.68601e-02    3.67646e-02    3.66565e-02    3.67646e-02    9.21686e-03    9.16591e-03    9.16591e-03    9.21686e-03    1.47003e-01    3.67509e-02    3.67509e-02    3.67509e-02    3.67509e-02    9.18771e-03    9.18771e-03    9.18771e-03    9.18771e-03
    7.80000e+01    0.00000e+00    9.12577e-04   -3.67068e-17    3.30812e-01    2.18722e-04    1.47028e-01    3.68590e-02    3.67641e-02    3.66574e-02    3.67641e-02    9.21659e-03    9.16613e-03    9.16613e-03    9.21659e-03    1.47003e-01    3.67509e-02    3.67509e-02    3.67509e-02    3.67509e-02    9.18771e-03    9.18771e-03    9.18771e-03    9.18771e-03
    7.90000e+01    0.00000e+00    8.99916e-04   -5.76828e-17    3.30809e-01    2.17673e-04    1.47026e-01    3.68576e-02    3.67636e-02    3.66588e-02    3.67636e-02    9.21621e-03    9.16646e-03    9.16646e-03    9.21621e-03    1.47003e-01    3.67509e-02    3.67509e-02    3.67509e-02    3.67509e-02    9.18771e-03    9.18771e-03    9.18771e-03    9.18771e-03
    8.00000e+01    0.00000e+00    8.83706e-04    0.00000e+00    3.30805e-01    2.16634e-04    1.47024e-01    3.68557e-02    3.67631e-02    3.66605e-02    3.67631e-02    9.21573e-03    9.16688e-03    9.16688e-03    9.21573e-03    1.47003e-01    3.67509e-02    3.67509e-02    3.67509e-02    3.67509e-02    9.18771e-03    9.18771e-03    9.18771e-03    9.18771e-03
    8.10000e+01    0.00000e+00    8.64008e-04   -2.62201e-17    3.30801e-01    2.15610e-04    1.47022e-01    3.68535e-02    3.67626e-02    3.66627e-02    3.67626e-02    9.21516e-03    9.16739e-03    9.16739e-03    9.21516e-03    1.47003e-01    3.67509e-02    3.67509e-02    3.67509e-02    3.67509e-02    9.18771e-03    9.18771e-03    9.18771e-03    9.18771e-03